
                                 *****************
                                 * O   R   C   A *
                                 *****************

                                            #,                                       
                                            ###                                      
                                            ####                                     
                                            #####                                    
                                            ######                                   
                                           ########,                                 
                                     ,,################,,,,,                         
                               ,,#################################,,                 
                          ,,##########################################,,             
                       ,#########################################, ''#####,          
                    ,#############################################,,   '####,        
                  ,##################################################,,,,####,       
                ,###########''''           ''''###############################       
              ,#####''   ,,,,##########,,,,          '''####'''          '####       
            ,##' ,,,,###########################,,,                        '##       
           ' ,,###''''                  '''############,,,                           
         ,,##''                                '''############,,,,        ,,,,,,###''
      ,#''                                            '''#######################'''  
     '                                                          ''''####''''         
             ,#######,   #######,   ,#######,      ##                                
            ,#'     '#,  ##    ##  ,#'     '#,    #''#        ,####,    ,#,          
            ##       ##  ##   ,#'  ##            #'  '#       #'       ,# #          
            ##       ##  #######   ##           ,######,      #####,      #          
            '#,     ,#'  ##    ##  '#,     ,#' ,#      #,     #,   #      #          
             '#######'   ##     ##  '#######'  #'      '#     '####' #    #          



                #########################################################
                #                        -***-                          #
                #          Department of theory and spectroscopy        #
                #                                                       #
                #                      Frank Neese                      #
                #                                                       #
                #     Directorship, Architecture, Infrastructure        #
                #                    SHARK, DRIVERS                     #
                #        Core code/Algorithms in most modules           #
                #                                                       #
                #        Max Planck Institute fuer Kohlenforschung      #
                #                Kaiser Wilhelm Platz 1                 #
                #                 D-45470 Muelheim/Ruhr                 #
                #                      Germany                          #
                #                                                       #
                #                  All rights reserved                  #
                #                        -***-                          #
                #########################################################


                         Program Version 6.1.0  -  RELEASE   -
                                (GIT: $679e74b$)
                          ($2025-06-10 18:02:51 +0200$)


 With contributions from (in alphabetic order):
[Max-Planck-Institut fuer Kohlenforschung]                               
  Daniel Aravena         : Magnetic Suceptibility                        
  Michael Atanasov       : Ab Initio Ligand Field Theory (pilot matlab implementation)
  Alexander A. Auer      : GIAO ZORA, VPT2 properties, NMR spectrum      
  Ute Becker             : All parallelization in ORCA, NUMFREQ, NUMCALC 
  Giovanni Bistoni       : ED, misc. LED, open-shell LED, HFLD           
  Dmytro Bykov           : pre 5.0 version of the SCF Hessian            
  Marcos Casanova-Páez   : Triplet and SCS-CIS(D). UHF-(DLPNO)-IP/EA/STEOM-CCSD. UHF-CVS-IP/STEOM-CCSD   
  Vijay G. Chilkuri      : MRCI spin determinant printing, contributions to CSF-ICE 
  Pauline Colinet        : FMM embedding                                 
  Dipayan Datta          : RHF DLPNO-CCSD density                        
  Achintya Kumar Dutta   : EOM-CC, STEOM-CC                              
  Nicolas Foglia         : Exact transition moments, OPA infrastructure, MCD improvements    
  Dmitry Ganyushin       : Spin-Orbit,Spin-Spin,Magnetic field MRCI      
  Miquel Garcia-Rates    : C-PCM and meta-GGA Hessian, CCSD/C-PCM, Gaussian charge scheme 
  Tiago L. C. Gouveia    : GS-ROHF, GS-ROCIS                             
  Yang Guo               : DLPNO-NEVPT2, F12-NEVPT2, CIM, IAO-localization        
  Andreas Hansen         : Spin unrestricted coupled pair/coupled cluster methods 
  Ingolf Harden          : AUTO-CI MPn and infrastructure                
  Benjamin Helmich-Paris : MC-RPA, TRAH-(SCF,CASSCF), AVAS, COSX integrals, SCF dyn. polar., MC-PDFT, srDFT 
  Lee Huntington         : MR-EOM, pCC                                   
  Robert Izsak           : Overlap fitted RIJCOSX, COSX-SCS-MP3, EOM     
  Riya Kayal             : Wick's Theorem for AUTO-CI, AUTO-CI UHF-CCSDT 
  Emily Kempfer          : AUTO-CI RHF CISDT and CCSDT, approximate NEVPT4
  Christian Kollmar      : KDIIS, OOCD, Brueckner-CCSD(T), CCSD density, CASPT2, CASPT2-K, improved NEVPT2 
  Axel Koslowski         : Symmetry handling                             
  Simone Kossmann        : meta-GGA functionals, TD-DFT gradient, OOMP2, (MP2 Hessian; deprecated post 5.0) 
  Lucas Lang             : DCDCAS, Hyperfine gauge corrections, ICE-SOC+SSC
  Marvin Lechner         : AUTO-CI (C++ implementation), FIC-MRCC        
  Spencer Leger          : CASSCF response                               
  Dagmar Lenk            : GEPOL surface, SMD, ORCA-2-JSON               
  Dimitrios Liakos       : Extrapolation schemes; Compound Job, Property file
  Dimitrios Manganas     : Further ROCIS development; embedding schemes. LFT, Crystal Embedding 
  Dimitrios Pantazis     : SARC Basis sets                               
  Anastasios Papadopoulos: AUTO-CI, single reference methods and gradients 
  Taras Petrenko         : pre 6.0 DFT Hessian and TD-DFT gradient,  ECA, NRVS 
  Petra Pikulova         : Analytic Raman intensities                    
  Peter Pinski           : DLPNO-MP2, DLPNO-MP2 Gradient                 
  Shashank Vittal Rao    : ES-AILFT, MagRelax                            
  Christoph Reimann      : Effective Core Potentials                     
  Marius Retegan         : Local ZFS, SOC                                
  Christoph Riplinger    : Optimizer, TS searches, QM/MM, DLPNO-CCSD(T), (RO)-DLPNO pert. Triples 
  Michael Roemelt        : Original ROCIS implementation, recursive CI coupling coefficients
  Masaaki Saitow         : Open-shell DLPNO-CCSD energy and density      
  Barbara Sandhoefer     : DKH picture change effects                    
  Yorick L. A. Schmerwitz: GMF and freeze-and-release deltaSCF, NEB S-IDPP initial path                    
  Kantharuban Sivalingam : CASSCF convergence/infrastructure, NEVPT2, NEVPT3, NEVPT4(SD), FIC-MRCI and CEPA variants
  Bernardo de Souza      : ESD, SOC TD-DFT                               
  Georgi L. Stoychev     : AutoAux, RI-MP2 NMR, DLPNO-MP2 response, X2C  
  Van Anh Tran           : RI-MP2 g-tensors                              
  Willem Van den Heuvel  : Paramagnetic NMR                              
  Zikuan Wang            : NOTCH, Electric field optimization            
  Frank Wennmohs         : Technical directorship and infrastructure     
  Hang Xu                : AUTO-CI-Response properties                   
                                                                         
[FACCTs GmbH]                                                            
  Markus Bursch, Nicolas Foglia, Miquel Garcia-Rates, Ingolf Harden, Hagen Neugebauer, Anastasios Papadopoulos, 
  Christoph Riplinger, Bernardo de Souza, Georgi L. Stoychev                                                    
                                                                 
  APM, various basis sets, CI-OPT, improved COSX, DLPNO-Multilevel,           
  DOCKER, DRACO, updates on ESD, Fragmentator, GOAT, IRC, LR-CPCM, L-BFGS, MBIS, meta-GGA TD-DFT gradient, ML-optimized integration grids, 
  MM, NACMEs, nearIR, NEB, NEB-TS, NL-DFT gradient (VV10), 2- and 3-layer-ONIOM, interface openCOSMO-RS, QMMM,   
  Crystal-QMMM, RESP, rigid body optimization, SF, symmetry and pop. for TD-DFT, various functionals, SOLVATOR                                   
                                                                         
[Other institutions]                                                     
  V. Asgeirsson          : NEB                                           
  Christoph Bannwarth    : sTDA-DFT, sTD-DFT, PBEh-3c, B97-3c, D3        
  Giovanni Bistoni       : ETS/NOCV, ADLD/ADEX, COVALED                  
  Martin Brehm           : Molecular dynamics                            
  Ronald Cardenas        : ETS/NOCV                                      
  Martina Colucci        : COVALED                                       
  Sebastian Ehlert       : rSCAN, r2SCAN, r2SCAN-3c, D4, dhf basis sets  
  Marvin Friede          : D4 for Fr, Ra, Ac-Lr                          
  Lars Goerigk           : TD-DFT with DH, B97 family of functionals     
  Stefan Grimme          : VdW corrections, initial TS optimization, DFT functionals, gCP, sTDA/sTD-DF 
  Waldemar Hujo          : DFT-NL                                        
  H. Jonsson             : NEB                                           
  Holger Kruse           : gCP                                           
  Marcel Mueller         : wB97X-3c, vDZP basis set                      
  Hagen Neugebauer       : wr2SCAN, Native XTB                           
  Gianluca Regni         : ADLD/ADEX                                     
  Tobias Risthaus        : pre 6.0 range-separated hybrid DFT and stability analysis
  Lukas Wittmann         : regularized MP2, r2SCAN double-hybrids, wr2SCAN        
                                                                         
We gratefully acknowledge several colleagues who have allowed us to      
interface, adapt or use parts of their codes:                            
  Ed Valeev, F. Pavosevic, A. Kumar             : LibInt (2-el integral package), F12 methods 
  Garnet Chan, S. Sharma, J. Yang, R. Olivares  : DMRG                   
  Ulf Ekstrom                                   : XCFun DFT Library      
  Mihaly Kallay                                 : mrcc  (arbitrary order and MRCC methods)
  Frank Weinhold                                : gennbo (NPA and NBO analysis)           
  Simon Mueller                                 : openCOSMO-RS                            
  Christopher J. Cramer and Donald G. Truhlar   : smd solvation model                     
  S Lehtola, MJT Oliveira, MAL Marques          : LibXC Library                           
  Liviu Ungur et al                             : ANISO software                          


 Your calculation uses the libint2 library for the computation of 2-el integrals
 For citations please refer to: http://libint.valeyev.net

 Your ORCA version has been built with support for libXC version: 7.0.0
 For citations please refer to: https://libxc.gitlab.io

 This ORCA versions uses:
   CBLAS   interface :  Fast vector & matrix operations
   LAPACKE interface :  Fast linear algebra routines
   SCALAPACK package :  Parallel linear algebra routines
   Shared memory     :  Shared parallel matrices
   BLAS/LAPACK       :  OpenBLAS 0.3.29  USE64BITINT DYNAMIC_ARCH NO_AFFINITY SkylakeX SINGLE_THREADED
        Core in use  :  SkylakeX
   Copyright (c) 2011-2014, The OpenBLAS Project


  ***********************************
  * Starting time: Wed Jan 28 11:45:58 2026
  * Host name:     bp1-compute180
  * Process ID:    2984031
  * Working dir.:  /user/work/kp22738/Diss/Orca/pyruvic_anion/dyson_orbitals/2_wat_non/15365061_d0_freq_2_wat_non
  ***********************************

NOTE: MaxCore=8000 MB was set to SCF,MP2,MDCI,CIPSI,MRCI,RASCI and CIS
      => If you want to overwrite this, your respective input block should be placed after the MaxCore statement
Using LibXC functional ID 471 : wB97X-D range-separated functional
[ 1]  J.-D. Chai and M. Head-Gordon.,  Phys. Chem. Chem. Phys. 10, 6615-6620 (2008)
Using LibXC functional ID 471 : wB97X-D range-separated functional
[ 1]  J.-D. Chai and M. Head-Gordon.,  Phys. Chem. Chem. Phys. 10, 6615-6620 (2008)
Your calculation utilizes LibXC
by S. Lehtola, C. Steigemann, M. J. T. Oliveira & M. A. L. Marques
Please cite in your paper:
Lehtola, S.; Steigemann, C.; Oliveira, M.J.T.; Marques, M. A. L. Software X, 7, (2018), 1.
   

================================================================================

----- Orbital basis set information -----
Your calculation utilizes the basis: aug-cc-pVDZ 
    H, B-Ne : Obtained from the ccRepo (grant-hill.group.shef.ac.uk/ccrepo) Feb. 2017
              R. A. Kendall, T. H. Dunning, Jr., R. J. Harrison, J. Chem. Phys. 96, 6796 (1992)
         He : Obtained from the ccRepo (grant-hill.group.shef.ac.uk/ccrepo) Feb. 2017
              D. E. Woon, T. H. Dunning, Jr., J. Chem. Phys. 100, 2975 (1994)
  Li-Be, Na : Obtained from the ccRepo (grant-hill.group.shef.ac.uk/ccrepo) Feb. 2017
              B. P. Prascher, D. E. Woon, K. A. Peterson, T. H. Dunning, Jr., A. K. Wilson, Theor. Chem. Acc. 128, 69 (2011)
         Mg : Obtained from the Peterson Research Group Website (tyr0.chem.wsu.edu/~kipeters) Feb. 2017
              B. P. Prascher, D. E. Woon, K. A. Peterson, T. H. Dunning, Jr., A. K. Wilson, Theor. Chem. Acc. 128, 69 (2011)
      Al-Ar : Obtained from the ccRepo (grant-hill.group.shef.ac.uk/ccrepo) Feb. 2017
              D. E. Woon, T. H. Dunning, Jr., J. Chem. Phys. 98, 1358 (1993)
      Sc-Zn : Obtained from the ccRepo (grant-hill.group.shef.ac.uk/ccrepo) Feb. 2017
              N. B. Balabanov, K. A. Peterson, J. Chem. Phys. 123, 064107 (2005)
              N. B. Balabanov, K. A. Peterson, J. Chem. Phys. 125, 074110 (2006)
      Ga-Kr : Obtained from the ccRepo (grant-hill.group.shef.ac.uk/ccrepo) Feb. 2017
              A. K. Wilson, D. E. Woon, K. A. Peterson, T. H. Dunning, Jr., J. Chem. Phys. 110, 7667 (1999)

================================================================================
                                        WARNINGS
                       Please study these warnings very carefully!
================================================================================


WARNING: your system is open-shell and RHF/RKS was chosen
  ===> : WILL SWITCH to UHF/UKS


================================================================================
                                       INPUT FILE
================================================================================
NAME = d0_freq_2_wat_non.inp
|  1> ! aug-cc-pVDZ TightSCF DEFGRID3 Engrad ANFREQ
|  2> 
|  3> %PAL NPROCS 8 END
|  4> 
|  5> %maxcore 8000
|  6> 
|  7> %method
|  8> method dft
|  9> functional hyb_gga_xc_wb97x_d
| 10> end
| 11> 
| 12> * xyz -1 2
| 13>   C     -0.781619    2.941696   -0.355449
| 14>   C     -0.488224    1.600086    0.048194
| 15>   C      0.390157    3.821511   -0.737226
| 16>   H      0.415675    4.707737   -0.083181
| 17>   H      0.257049    4.185181   -1.768394
| 18>   H      1.342258    3.284935   -0.659930
| 19>   O     -1.957549    3.424569   -0.408821
| 20>   O      0.666084    1.085673    0.121898
| 21>   O     -1.576054    0.826243    0.380493
| 22>   H     -1.218492   -0.037605    0.635046
| 23>   O     -4.306914    2.192235    0.312235
| 24>   H     -3.505500    2.694460    0.039322
| 25>   H     -3.907050    1.342788    0.517072
| 26>   O      0.373461   -1.343542    1.125590
| 27>   H      0.638374   -0.472270    0.721358
| 28>   H      0.536794   -1.221103    2.063221
| 29> * 
| 30> 
| 31>                          ****END OF INPUT****
================================================================================

                     *******************************
                     * Energy+Gradient Calculation *
                     *******************************

---------------------------------
CARTESIAN COORDINATES (ANGSTROEM)
---------------------------------
  C     -0.781619    2.941696   -0.355449
  C     -0.488224    1.600086    0.048194
  C      0.390157    3.821511   -0.737226
  H      0.415675    4.707737   -0.083181
  H      0.257049    4.185181   -1.768394
  H      1.342258    3.284935   -0.659930
  O     -1.957549    3.424569   -0.408821
  O      0.666084    1.085673    0.121898
  O     -1.576054    0.826243    0.380493
  H     -1.218492   -0.037605    0.635046
  O     -4.306914    2.192235    0.312235
  H     -3.505500    2.694460    0.039322
  H     -3.907050    1.342788    0.517072
  O      0.373461   -1.343542    1.125590
  H      0.638374   -0.472270    0.721358
  H      0.536794   -1.221103    2.063221

----------------------------
CARTESIAN COORDINATES (A.U.)
----------------------------
  NO LB      ZA    FRAG     MASS         X           Y           Z
   0 C     6.0000    0    12.011   -1.477046    5.559000   -0.671701
   1 C     6.0000    0    12.011   -0.922610    3.023724    0.091073
   2 C     6.0000    0    12.011    0.737290    7.221609   -1.393155
   3 H     1.0000    0     1.008    0.785512    8.896334   -0.157189
   4 H     1.0000    0     1.008    0.485752    7.908846   -3.341780
   5 H     1.0000    0     1.008    2.536500    6.207628   -1.247087
   6 O     8.0000    0    15.999   -3.699232    6.471498   -0.772560
   7 O     8.0000    0    15.999    1.258716    2.051625    0.230354
   8 O     8.0000    0    15.999   -2.978310    1.561373    0.719028
   9 H     1.0000    0     1.008   -2.302616   -0.071063    1.200063
  10 O     8.0000    0    15.999   -8.138888    4.142724    0.590039
  11 H     1.0000    0     1.008   -6.624435    5.091791    0.074308
  12 H     1.0000    0     1.008   -7.383254    2.537502    0.977124
  13 O     8.0000    0    15.999    0.705739   -2.538926    2.127057
  14 H     1.0000    0     1.008    1.206352   -0.892461    1.363169
  15 H     1.0000    0     1.008    1.014394   -2.307550    3.898923

--------------------------------
INTERNAL COORDINATES (ANGSTROEM)
--------------------------------
 C      0   0   0     0.000000000000     0.00000000     0.00000000
 C      1   0   0     1.431406891689     0.00000000     0.00000000
 C      1   2   0     1.514228221283   117.19785668     0.00000000
 H      3   1   2     1.101736154179   109.61056668   239.25063695
 H      3   1   2     1.101490377982   109.53304611   122.09547511
 H      3   1   2     1.095620732550   111.72358446     0.66821795
 O      1   2   3     1.272331037668   123.84710402   180.00274798
 O      2   1   3     1.265890979922   125.74597018     0.44164539
 O      2   1   3     1.375728797020   115.67379381   180.36858719
 H      9   2   1     0.968958812725   105.85126533   180.46714037
 O      7   1   2     2.749197109324   127.49512707     3.12902235
 H     11   7   1     0.984365712319     4.32512410   177.20472380
 H     11   7   1     0.960942048655    95.54069632   356.01147104
 O     10   9   2     2.116700077506   152.68007369    10.32597382
 H     14  10   9     0.996341962068    64.30535248   346.93230554
 H     14  10   9     0.959594117203   106.00595599    84.89848052

---------------------------
INTERNAL COORDINATES (A.U.)
---------------------------
 C      0   0   0     0.000000000000     0.00000000     0.00000000
 C      1   0   0     2.704967011499     0.00000000     0.00000000
 C      1   2   0     2.861476642480   117.19785668     0.00000000
 H      3   1   2     2.081979603238   109.61056668   239.25063695
 H      3   1   2     2.081515153536   109.53304611   122.09547511
 H      3   1   2     2.070423131165   111.72358446     0.66821795
 O      1   2   3     2.404357212880   123.84710402   180.00274798
 O      2   1   3     2.392187267455   125.74597018     0.44164539
 O      2   1   3     2.599750660917   115.67379381   180.36858719
 H      9   2   1     1.831066791099   105.85126533   180.46714037
 O      7   1   2     5.195229624791   127.49512707     3.12902235
 H     11   7   1     1.860181611906     4.32512410   177.20472380
 H     11   7   1     1.815917302528    95.54069632   356.01147104
 O     10   9   2     3.999983454136   152.68007369    10.32597382
 H     14  10   9     1.882813444042    64.30535248   346.93230554
 H     14  10   9     1.813370081236   106.00595599    84.89848052

---------------------
BASIS SET INFORMATION
---------------------
There are 3 groups of distinct atoms

 Group   1 Type C   : 18s5p2d contracted to 4s3p2d pattern {8811/311/11}
 Group   2 Type H   : 5s2p contracted to 3s2p pattern {311/11}
 Group   3 Type O   : 18s5p2d contracted to 4s3p2d pattern {8811/311/11}

Atom   0C    basis set group =>   1
Atom   1C    basis set group =>   1
Atom   2C    basis set group =>   1
Atom   3H    basis set group =>   2
Atom   4H    basis set group =>   2
Atom   5H    basis set group =>   2
Atom   6O    basis set group =>   3
Atom   7O    basis set group =>   3
Atom   8O    basis set group =>   3
Atom   9H    basis set group =>   2
Atom  10O    basis set group =>   3
Atom  11H    basis set group =>   2
Atom  12H    basis set group =>   2
Atom  13O    basis set group =>   3
Atom  14H    basis set group =>   2
Atom  15H    basis set group =>   2


           ************************************************************
           *        Program running with 8 parallel MPI-processes     *
           *              working on a common directory               *
           ************************************************************
------------------------------------------------------------------------------
                             ORCA STARTUP CALCULATIONS
------------------------------------------------------------------------------
------------------------------------------------------------------------------
                   ___                                                        
                  /   \      - P O W E R E D   B Y -                         
                 /     \                                                     
                 |  |  |   _    _      __       _____    __    __             
                 |  |  |  | |  | |    /  \     |  _  \  |  |  /  |          
                  \  \/   | |  | |   /    \    | | | |  |  | /  /          
                 / \  \   | |__| |  /  /\  \   | |_| |  |  |/  /          
                |  |  |   |  __  | /  /__\  \  |    /   |      \           
                |  |  |   | |  | | |   __   |  |    \   |  |\   \          
                \     /   | |  | | |  |  |  |  | |\  \  |  | \   \       
                 \___/    |_|  |_| |__|  |__|  |_| \__\ |__|  \__/        
                                                                              
                      - O R C A' S   B I G   F R I E N D -                    
                                      &                                       
                       - I N T E G R A L  F E E D E R -                       
                                                                              
 v1 FN, 2020, v2 2021, v3 2022-2024                                           
------------------------------------------------------------------------------


----------------------
SHARK INTEGRAL PACKAGE
----------------------

Number of atoms                             ...     16
Number of basis functions                   ...    304
Number of shells                            ...    160
Maximum angular momentum                    ...      2
Integral batch strategy                     ... SHARK/LIBINT Hybrid
RI-J (if used) integral strategy            ... SPLIT-RIJ (Revised 2003 algorithm where possible)
Printlevel                                  ...      1
Contraction scheme used                     ... PARTIAL GENERAL contraction
Prescreening option                         ... SCHWARTZ
   Thresh                                   ... 2.500e-11
   Tcut                                     ... 2.500e-12
   Tpresel                                  ... 2.500e-12 
Coulomb Range Separation                    ... NOT USED
Exchange Range Separation                   ... Long Range
   Mu parameter                             ... 2.000e-01
   Scaling (regular/separated)              ... 2.220e-01 7.780e-01
Robust (split-)RI terms used:
  metric    (central integrals)             ... YES
  density   (r.h.s.  integrals)             ... YES
  potential (l.h.s.  integrals)             ... YES
Multipole approximations                    ... NOT USED
Finite Nucleus Model                        ... NOT USED
CABS basis                                  ... NOT available
Auxiliary Coulomb fitting basis             ... NOT available
Auxiliary J/K fitting basis                 ... NOT available
Auxiliary Correlation fitting basis         ... NOT available
Auxiliary 'external' fitting basis          ... NOT available

Checking pre-screening integrals            ... done (  0.0 sec) Dimension = 160
Save PGC pre-screening integrals            ... done (  0.0 sec) Dimension = 160
Calculate PGC overlap integrals             ... done (  0.0 sec) Dimension = 112
Calculating pre-screening integrals (ORCA)  ... done (  0.1 sec) Dimension = 112
Shell pair information
Shell pair cut-off parameter TPreSel        ...   2.5e-12
Total number of shell pairs                 ...     12880
Shell pairs after pre-screening             ...     10263
Total number of primitive shell pairs       ...     18576
Primitive shell pairs kept                  ...     13469
          la=0 lb=0:   3700 shell pairs
          la=1 lb=0:   3641 shell pairs
          la=1 lb=1:    785 shell pairs
          la=2 lb=0:   1393 shell pairs
          la=2 lb=1:    613 shell pairs
          la=2 lb=2:    131 shell pairs

Checking whether 4 symmetric matrices of dimension 304 fit in memory
:Max Core in MB      =   8000.00
 MB in use           =     12.48
 MB left             =   7987.52
 MB needed           =      1.41
 Data fit in memory  = YES
Calculating Nuclear repulsion               ... done (  0.0 sec) ENN=    387.608722165145 Eh

Diagonalization of the overlap matrix:
Smallest eigenvalue                        ... 1.770e-05
Time for diagonalization                   ...    0.011 sec
Threshold for overlap eigenvalues          ... 1.000e-07
Number of eigenvalues below threshold      ... 0
Time for construction of square roots      ...    0.008 sec
Total time needed                          ...    0.059 sec

-------------------
DFT GRID GENERATION
-------------------

General Integration Accuracy     IntAcc      ... 4.959
Radial Grid Type                 RadialGrid  ... OptM3 with GC (2021)
Angular Grid (max. ang.)         AngularGrid ... 6 (Lebedev-590)
Angular grid pruning method      GridPruning ... 4 (adaptive)
Weight generation scheme         WeightScheme... mBecke (2022)
Basis function cutoff            BFCut       ... 1.0000e-11
Integration weight cutoff        WCut        ... 1.0000e-14
Partially contracted basis set               ... off
Rotationally invariant grid construction     ... off
Angular grids for H and He will be reduced by one unit
Diffuse basis detected: some atoms will have their outermost
                        angular grid increased by 1.

Total number of grid points                  ...   196699
Total number of batches                      ...     3083
Average number of points per batch           ...       63
Average number of grid points per atom       ...    12294

---------------------
SHARK GRID GENERATION
---------------------

General Integration Accuracy     IntAcc      ... 4.959
Radial Grid Type                 RadialGrid  ... OptM3 with GC (2021)
Angular Grid (max. ang.)         AngularGrid ... 6 (Lebedev-590)
Angular grid pruning method      GridPruning ... 4 (adaptive)
Weight generation scheme         WeightScheme... mBecke (2022)
Basis function cutoff            BFCut       ... 1.0000e-11
Integration weight cutoff        WCut        ... 1.0000e-14
Partially contracted basis set               ... off
Rotationally invariant grid construction     ... off
Angular grids for H and He will be reduced by one unit
Diffuse basis detected: some atoms will have their outermost
                        angular grid increased by 1.
Steep s-basis detected: some atoms will have their radial
                        grid points doubled.

Total number of grid points                  ...   315517
Total number of batches                      ...     4938
Average number of points per batch           ...       63
Average number of grid points per atom       ...    19720
Grids setup in  10.1 sec
Initializing property integral containers    ... done (  0.0 sec)

SHARK setup successfully completed in  10.7 seconds

Maximum memory used throughout the entire STARTUP-calculation: 73.2 MB


           ************************************************************
           *        Program running with 8 parallel MPI-processes     *
           *              working on a common directory               *
           ************************************************************
-------------------------------------------------------------------------------
                                 ORCA GUESS
                   Start orbitals & Density for SCF / CASSCF
-------------------------------------------------------------------------------

------------
SCF SETTINGS
------------
Hamiltonian:
 Density Functional     Method          .... DFT(GTOs)
  Functional kind                       .... Exchange-Correlation
  Functional name                       .... wB97X-D range-separated functional
  Functional family                     .... Hybrid GGA
  Functional refs                              
    [ 0] J.-D. Chai and M. Head-Gordon.,  Phys. Chem. Chem. Phys. 10, 6615-6620 (2008), doi: 10.1039/B810189B
  Fraction of HF Exchange (short range) .... 0.2220
  Fraction of HF Exchange ( int64 range )  .... 1.0000
  Range separation parameter mu         .... 0.2000
  Functional external parameters        .... 18
    Parameter  0 _cx0       =  7.779640e-01 : u^0 coefficient for exchange
    Parameter  1 _cx1       =  6.611600e-01 : u^1 coefficient for exchange
    Parameter  2 _cx2       =  5.745410e-01 : u^2 coefficient for exchange
    Parameter  3 _cx3       = -5.256710e+00 : u^3 coefficient for exchange
    Parameter  4 _cx4       =  1.163860e+01 : u^4 coefficient for exchange
    Parameter  5 _css0      =  1.000000e+00 : u^0 coefficient for same-spin correlation
    Parameter  6 _css1      = -6.905390e+00 : u^1 coefficient for same-spin correlation
    Parameter  7 _css2      =  3.133430e+01 : u^2 coefficient for same-spin correlation
    Parameter  8 _css3      = -5.105330e+01 : u^3 coefficient for same-spin correlation
    Parameter  9 _css4      =  2.644230e+01 : u^4 coefficient for same-spin correlation
    Parameter 10 _cos0      =  1.000000e+00 : u^0 coefficient for opposite-spin correlation
    Parameter 11 _cos1      =  1.794130e+00 : u^1 coefficient for opposite-spin correlation
    Parameter 12 _cos2      = -1.204770e+01 : u^2 coefficient for opposite-spin correlation
    Parameter 13 _cos3      =  1.408470e+01 : u^3 coefficient for opposite-spin correlation
    Parameter 14 _cos4      = -8.508090e+00 : u^4 coefficient for opposite-spin correlation
    Parameter 15 _alpha     =  1.000000e+00 : fraction of HF exchange
    Parameter 16 _beta      = -7.779640e-01 : fraction of short-range exchange
    Parameter 17 _omega     =  2.000000e-01 : range-separation constant
 Long-range corrected/Screened/Range-Separated Hybrid DFT is turned on
   Amount of maximum screened exact exchange              ....  0.777964
   Range separation parameter mu (erf(mu*r12)/r12)        ....  0.200000


General Settings:
 Integral files         IntName         .... d0_freq_2_wat_non
 Hartree-Fock type      HFTyp           .... UHF
 Total Charge           Charge          ....   -1
 Multiplicity           Mult            ....    2
 Number of Electrons    NEL             ....   67
 Basis Dimension        Dim             ....  256
 Nuclear Repulsion      ENuc            ....    387.6087221651 Eh

Convergence Acceleration:
 AO-DIIS                CNVDIIS         .... on
   Start iteration      DIISMaxIt       ....    12
   Startup error        DIISStart       ....  0.200000
   # of expansion vecs  DIISMaxEq       ....     5
   Bias factor          DIISBfac        ....   1.050
   Max. coefficient     DIISMaxC        ....  10.000
 MO-DIIS                CNVKDIIS        .... off
 Trust-Rad. Augm. Hess. CNVTRAH         .... auto
   Auto Start mean grad. ratio tolernc. ....  1.125000
   Auto Start start iteration           ....    50
   Auto Start num. interpolation iter.  ....    10
   Max. Number of Micro iterations      ....    24
   Max. Number of Macro iterations      .... Maxiter - #DIIS iter
   Number of Davidson start vectors     ....     2
   Converg. threshold    (grad. norm)   ....   1.000e-05
   Grad. Scal. Fac. for Micro threshold ....   0.100
   Minimum threshold for Micro iter.    ....   1.000e-02
   NR start threshold (gradient norm)   ....   1.000e-04
   Initial trust radius                 ....   0.400
   Minimum AH scaling param. (alpha)    ....   1.000
   Maximum AH scaling param. (alpha)    .... 1000.000
   Quad. conv. algorithm                .... NR
   White noise on init. David. guess    .... on
   Maximum white noise                  ....   0.010
   Pseudo random numbers                .... off
   Inactive MOs                         .... canonical
   Orbital update algorithm             .... Taylor
   Preconditioner                       .... Diag
   Full preconditioner red. dimension   ....   250
 SOSCF                 CNVSOSCF           .... on
   Start iteration     SOSCFMaxIt         ....   150
   Startup grad/error  SOSCFStart         ....  0.003300
   Hessian update      SOSCFHessUp        .... L-BFGS
   Autom. constraints  SOSCFAutoConstrain .... off
 Level Shifting         CNVShift        .... on
   Level shift para.    LevelShift      ....    0.2500
   Turn off err/grad.   ShiftErr        ....    0.0010
 Zerner damping         CNVZerner       .... off
 Static damping         CNVDamp         .... on
   Fraction old density DampFac         ....    0.7000
   Max. Damping (<1)    DampMax         ....    0.9800
   Min. Damping (>=0)   DampMin         ....    0.0000
   Turn off err/grad.   DampErr         ....    0.1000

SCF Procedure:
 Maximum # iterations   MaxIter         ....   125
 SCF integral mode      SCFMode         .... Direct
   Integral package                     .... SHARK and LIBINT hybrid scheme
 Reset frequency        DirectResetFreq ....    20
 Integral Threshold     Thresh          ....  2.500e-11 Eh
 Primitive CutOff       TCut            ....  2.500e-12 Eh

Convergence Tolerance:
 Convergence Check Mode ConvCheckMode   .... Total+1el-Energy
 Convergence forced     ConvForced      .... 0
 Energy Change          TolE            ....  1.000e-08 Eh
 1-El. energy change                    ....  1.000e-05 Eh
 Orbital Gradient       TolG            ....  1.000e-05
 Orbital Rotation angle TolX            ....  1.000e-05
 DIIS Error             TolErr          ....  5.000e-07

------------------------------
INITIAL GUESS: MODEL POTENTIAL
------------------------------
Loading Hartree-Fock densities                     ... done
Calculating cut-offs                               ... done
Initializing the effective Hamiltonian             ... done
Setting up the integral package (SHARK)            ... done
Starting the Coulomb interaction                   ... done (   0.1 sec)
Making the grid                                    ... done (   0.2 sec)
Mapping shells                                     ... done
Starting the XC term evaluation                    ... done (   0.3 sec)
  promolecular density results
     # of electrons  =     65.995031300
     EX+EC           =    -42.403811982
Transforming the Hamiltonian                       ... done (   0.0 sec)
Diagonalizing the Hamiltonian                      ... done (   0.0 sec)
Back transforming the eigenvectors                 ... done (   0.0 sec)
Now organizing SCF variables                       ... done
                      ------------------
                      INITIAL GUESS DONE (   0.6 sec)
                      ------------------
             **** ENERGY FILE WAS UPDATED (d0_freq_2_wat_non.en.tmp) ****
Finished Guess after   1.1 sec
Maximum memory used throughout the entire GUESS-calculation: 16.1 MB


           ************************************************************
           *        Program running with 8 parallel MPI-processes     *
           *              working on a common directory               *
           ************************************************************

-------------------------------------------------------------------------------------------
                                      ORCA LEAN-SCF
                              memory conserving SCF solver
-------------------------------------------------------------------------------------------

----------------------------------------D-I-I-S--------------------------------------------
Iteration    Energy (Eh)           Delta-E    RMSDP     MaxDP     DIISErr   Damp  Time(sec)
-------------------------------------------------------------------------------------------
               ***  Starting incremental Fock matrix formation  ***
    1    -495.1976274083320959     0.00e+00  2.94e-03  5.71e-02  4.44e-02  0.700  13.7
    2    -495.2177419217222223    -2.01e-02  2.28e-03  4.48e-02  3.07e-02  0.700  12.4
                               ***Turning on AO-DIIS***
    3    -495.2291656302801357    -1.14e-02  1.46e-03  2.26e-02  2.10e-02  0.700  11.9
    4    -495.2365087460880204    -7.34e-03  3.50e-03  5.22e-02  1.48e-02  0.000  11.9
                              *** Initializing SOSCF ***
---------------------------------------S-O-S-C-F--------------------------------------
Iteration    Energy (Eh)           Delta-E    RMSDP     MaxDP     MaxGrad    Time(sec)
--------------------------------------------------------------------------------------
    5    -495.2539154460686177    -1.74e-02  4.72e-04  6.50e-03  2.32e-03    12.6
               *** Restarting incremental Fock matrix formation ***
    6    -495.2541185626437255    -2.03e-04  5.14e-04  9.06e-03  1.56e-03    13.2
    7    -495.2541976877804473    -7.91e-05  5.34e-04  9.96e-03  9.75e-04    11.1
    8    -495.2542229565029857    -2.53e-05  6.83e-05  6.84e-04  3.76e-04    12.1
    9    -495.2542288969133324    -5.94e-06  7.63e-05  1.32e-03  1.65e-04    11.1
   10    -495.2542302459506800    -1.35e-06  2.50e-05  4.48e-04  9.86e-05    10.7
   11    -495.2542304277027370    -1.82e-07  1.39e-05  4.65e-04  4.76e-05     9.6
   12    -495.2542305329474175    -1.05e-07  2.14e-05  8.44e-04  1.40e-05     9.2
   13    -495.2542305394422328    -6.49e-09  1.01e-05  2.90e-04  9.95e-06     8.9
                 **** Energy Check signals convergence ****

               *****************************************************
               *                     SUCCESS                       *
               *           SCF CONVERGED AFTER  13 CYCLES          *
               *****************************************************

             **** ENERGY FILE WAS UPDATED (d0_freq_2_wat_non.en.tmp) ****

----------------
TOTAL SCF ENERGY
----------------

Total Energy       :       -495.25423054222938 Eh          -13476.55275 eV

Components:
Nuclear Repulsion  :        387.60872216514474 Eh           10547.36955 eV
Electronic Energy  :       -882.86295270737412 Eh          -24023.92230 eV
One Electron Energy:      -1459.64864166560301 Eh          -39719.05882 eV
Two Electron Energy:        576.78568895822889 Eh           15695.13652 eV

Virial components:
Potential Energy   :       -987.58557197705943 Eh          -26873.56964 eV
Kinetic Energy     :        492.33134143483005 Eh           13397.01689 eV
Virial Ratio       :          2.00593683331002

DFT components:
N(Alpha)           :       34.000025466723 electrons
N(Beta)            :       33.000077328668 electrons
N(Total)           :       67.000102795390 electrons
E(XC)              :      -43.350740019216 Eh       

---------------
SCF CONVERGENCE
---------------

  Last Energy change         ...    6.4948e-09  Tolerance :   1.0000e-08
  Last MAX-Density change    ...    2.8996e-04  Tolerance :   1.0000e-07
  Last RMS-Density change    ...    1.0068e-05  Tolerance :   5.0000e-09
  Last DIIS Error            ...    2.3207e-03  Tolerance :   5.0000e-07
  Last Orbital Gradient      ...    9.9463e-06  Tolerance :   1.0000e-05
  Last Orbital Rotation      ...    2.1277e-05  Tolerance :   1.0000e-05


----------------------
UHF SPIN CONTAMINATION
----------------------

Warning: in a DFT calculation there is little theoretical justification to 
         calculate <S**2> as in Hartree-Fock theory. We will do it anyways
         but you should keep in mind that the values have only limited relevance

Expectation value of <S**2>     :     0.755374
Ideal value S*(S+1) for S=0.5   :     0.750000
Deviation                       :     0.005374

----------------
ORBITAL ENERGIES
----------------
                 SPIN UP ORBITALS
  NO   OCC          E(Eh)            E(eV) 
   0   1.0000     -19.151312      -521.1337 
   1   1.0000     -19.138293      -520.7794 
   2   1.0000     -19.094833      -519.5968 
   3   1.0000     -19.089556      -519.4532 
   4   1.0000     -19.075935      -519.0826 
   5   1.0000     -10.249043      -278.8907 
   6   1.0000     -10.193100      -277.3683 
   7   1.0000     -10.149166      -276.1729 
   8   1.0000      -1.041494       -28.3405 
   9   1.0000      -0.977346       -26.5949 
  10   1.0000      -0.948180       -25.8013 
  11   1.0000      -0.943235       -25.6667 
  12   1.0000      -0.928130       -25.2557 
  13   1.0000      -0.695441       -18.9239 
  14   1.0000      -0.621520       -16.9124 
  15   1.0000      -0.495055       -13.4711 
  16   1.0000      -0.486085       -13.2270 
  17   1.0000      -0.437322       -11.9001 
  18   1.0000      -0.426778       -11.6132 
  19   1.0000      -0.400676       -10.9029 
  20   1.0000      -0.395661       -10.7665 
  21   1.0000      -0.360608        -9.8126 
  22   1.0000      -0.350591        -9.5401 
  23   1.0000      -0.344684        -9.3793 
  24   1.0000      -0.336287        -9.1508 
  25   1.0000      -0.313145        -8.5211 
  26   1.0000      -0.304457        -8.2847 
  27   1.0000      -0.277053        -7.5390 
  28   1.0000      -0.272311        -7.4099 
  29   1.0000      -0.258149        -7.0246 
  30   1.0000      -0.225029        -6.1233 
  31   1.0000      -0.224023        -6.0960 
  32   1.0000      -0.171688        -4.6719 
  33   1.0000      -0.076113        -2.0711 
  34   0.0000       0.130472         3.5503 
  35   0.0000       0.135401         3.6844 
  36   0.0000       0.153739         4.1835 
  37   0.0000       0.155101         4.2205 
  38   0.0000       0.162874         4.4320 
  39   0.0000       0.176254         4.7961 
  40   0.0000       0.185914         5.0590 
  41   0.0000       0.194781         5.3002 
  42   0.0000       0.212850         5.7919 
  43   0.0000       0.233851         6.3634 
  44   0.0000       0.242703         6.6043 

                 SPIN DOWN ORBITALS
  NO   OCC          E(Eh)            E(eV) 
   0   1.0000     -19.150350      -521.1075 
   1   1.0000     -19.138311      -520.7799 
   2   1.0000     -19.090302      -519.4735 
   3   1.0000     -19.089563      -519.4534 
   4   1.0000     -19.068607      -518.8832 
   5   1.0000     -10.246204      -278.8134 
   6   1.0000     -10.189836      -277.2795 
   7   1.0000     -10.149538      -276.1830 
   8   1.0000      -1.036268       -28.1983 
   9   1.0000      -0.977195       -26.5908 
  10   1.0000      -0.936112       -25.4729 
  11   1.0000      -0.934374       -25.4256 
  12   1.0000      -0.924601       -25.1597 
  13   1.0000      -0.686706       -18.6862 
  14   1.0000      -0.609444       -16.5838 
  15   1.0000      -0.489033       -13.3073 
  16   1.0000      -0.485232       -13.2038 
  17   1.0000      -0.435143       -11.8409 
  18   1.0000      -0.421878       -11.4799 
  19   1.0000      -0.395777       -10.7697 
  20   1.0000      -0.375343       -10.2136 
  21   1.0000      -0.358947        -9.7675 
  22   1.0000      -0.342257        -9.3133 
  23   1.0000      -0.339392        -9.2353 
  24   1.0000      -0.333948        -9.0872 
  25   1.0000      -0.309619        -8.4252 
  26   1.0000      -0.301507        -8.2044 
  27   1.0000      -0.272330        -7.4105 
  28   1.0000      -0.241068        -6.5598 
  29   1.0000      -0.231444        -6.2979 
  30   1.0000      -0.220188        -5.9916 
  31   1.0000      -0.219605        -5.9758 
  32   1.0000      -0.163267        -4.4427 
  33   0.0000       0.132405         3.6029 
  34   0.0000       0.141117         3.8400 
  35   0.0000       0.157369         4.2822 
  36   0.0000       0.158461         4.3119 
  37   0.0000       0.164304         4.4709 
  38   0.0000       0.170548         4.6409 
  39   0.0000       0.177684         4.8350 
  40   0.0000       0.186845         5.0843 
  41   0.0000       0.195739         5.3263 
  42   0.0000       0.214712         5.8426 
  43   0.0000       0.235214         6.4005 
*Only the first 10 virtual orbitals were printed.

                    ********************************
                    * MULLIKEN POPULATION ANALYSIS *
                    ********************************

--------------------------------------------
MULLIKEN ATOMIC CHARGES AND SPIN POPULATIONS
--------------------------------------------
   0 C :   -0.049921    0.291653
   1 C :    1.019512    0.218194
   2 C :    0.633463   -0.050023
   3 H :   -0.112475    0.013422
   4 H :   -0.117484    0.012949
   5 H :   -0.336994    0.000686
   6 O :   -0.823465    0.301685
   7 O :   -0.791879    0.180227
   8 O :   -0.554667    0.037314
   9 H :    0.129163   -0.001416
  10 O :   -0.341613    0.000464
  11 H :    0.222781   -0.003433
  12 H :    0.115341   -0.000223
  13 O :   -0.351819   -0.000016
  14 H :    0.267454   -0.000979
  15 H :    0.092602   -0.000503
Sum of atomic charges         :   -1.0000000
Sum of atomic spin populations:    1.0000000

-----------------------------------------------------
MULLIKEN REDUCED ORBITAL CHARGES AND SPIN POPULATIONS
-----------------------------------------------------
CHARGE
  0 C s       :     3.191509  s :     3.191509
      pz      :     0.920998  p :     2.517340
      px      :     0.757051
      py      :     0.839291
      dz2     :     0.033587  d :     0.341072
      dxz     :     0.044479
      dyz     :     0.057171
      dx2y2   :     0.094160
      dxy     :     0.111675

  1 C s       :     2.967331  s :     2.967331
      pz      :     0.792787  p :     1.789029
      px      :     0.516124
      py      :     0.480118
      dz2     :     0.010118  d :     0.224128
      dxz     :     0.044419
      dyz     :     0.044047
      dx2y2   :     0.115815
      dxy     :     0.009729

  2 C s       :     2.956788  s :     2.956788
      pz      :     0.816248  p :     2.450960
      px      :     0.695223
      py      :     0.939490
      dz2     :    -0.011787  d :    -0.041211
      dxz     :     0.004568
      dyz     :    -0.015210
      dx2y2   :     0.007495
      dxy     :    -0.026276

  3 H s       :     1.119177  s :     1.119177
      pz      :    -0.002989  p :    -0.006702
      px      :     0.002018
      py      :    -0.005730

  4 H s       :     1.125521  s :     1.125521
      pz      :     0.008191  p :    -0.008037
      px      :     0.004158
      py      :    -0.020386

  5 H s       :     1.318035  s :     1.318035
      pz      :    -0.006866  p :     0.018959
      px      :    -0.002199
      py      :     0.028024

  6 O s       :     4.093409  s :     4.093409
      pz      :     1.582949  p :     4.700668
      px      :     1.366829
      py      :     1.750890
      dz2     :     0.001507  d :     0.029388
      dxz     :     0.010913
      dyz     :     0.002430
      dx2y2   :     0.007144
      dxy     :     0.007394

  7 O s       :     4.053199  s :     4.053199
      pz      :     1.629076  p :     4.706898
      px      :     1.366946
      py      :     1.710876
      dz2     :     0.002637  d :     0.031782
      dxz     :     0.011530
      dyz     :     0.001914
      dx2y2   :     0.006799
      dxy     :     0.008902

  8 O s       :     3.973722  s :     3.973722
      pz      :     1.759413  p :     4.565031
      px      :     1.549804
      py      :     1.255814
      dz2     :     0.002286  d :     0.015913
      dxz     :     0.008495
      dyz     :     0.001267
      dx2y2   :     0.000288
      dxy     :     0.003578

  9 H s       :     0.765357  s :     0.765357
      pz      :     0.034844  p :     0.105480
      px      :     0.029398
      py      :     0.041238

 10 O s       :     3.788969  s :     3.788969
      pz      :     1.842542  p :     4.563033
      px      :     1.494847
      py      :     1.225644
      dz2     :    -0.001365  d :    -0.010389
      dxz     :     0.000567
      dyz     :    -0.000902
      dx2y2   :    -0.002375
      dxy     :    -0.006313

 11 H s       :     0.718540  s :     0.718540
      pz      :     0.029483  p :     0.058679
      px      :     0.020098
      py      :     0.009098

 12 H s       :     0.782160  s :     0.782160
      pz      :     0.042292  p :     0.102498
      px      :     0.039142
      py      :     0.021065

 13 O s       :     3.779382  s :     3.779382
      pz      :     1.211476  p :     4.580929
      px      :     1.856516
      py      :     1.512938
      dz2     :    -0.007816  d :    -0.008492
      dxz     :    -0.000332
      dyz     :    -0.001336
      dx2y2   :    -0.000517
      dxy     :     0.001510

 14 H s       :     0.652108  s :     0.652108
      pz      :     0.029536  p :     0.080438
      px      :     0.020306
      py      :     0.030596

 15 H s       :     0.790218  s :     0.790218
      pz      :     0.038014  p :     0.117180
      px      :     0.045548
      py      :     0.033617


SPIN
  0 C s       :    -0.008069  s :    -0.008069
      pz      :     0.223586  p :     0.272236
      px      :     0.016300
      py      :     0.032350
      dz2     :     0.002324  d :     0.027485
      dxz     :     0.012120
      dyz     :     0.013743
      dx2y2   :     0.003754
      dxy     :    -0.004456

  1 C s       :    -0.010301  s :    -0.010301
      pz      :     0.185139  p :     0.215675
      px      :     0.003647
      py      :     0.026889
      dz2     :     0.003578  d :     0.012820
      dxz     :    -0.002465
      dyz     :     0.011948
      dx2y2   :     0.002443
      dxy     :    -0.002684

  2 C s       :    -0.016844  s :    -0.016844
      pz      :    -0.007011  p :    -0.032983
      px      :    -0.011017
      py      :    -0.014955
      dz2     :    -0.000726  d :    -0.000196
      dxz     :    -0.000399
      dyz     :    -0.000791
      dx2y2   :     0.000459
      dxy     :     0.001260

  3 H s       :     0.013808  s :     0.013808
      pz      :     0.000393  p :    -0.000386
      px      :     0.000202
      py      :    -0.000981

  4 H s       :     0.013502  s :     0.013502
      pz      :    -0.000606  p :    -0.000553
      px      :     0.000303
      py      :    -0.000249

  5 H s       :    -0.000769  s :    -0.000769
      pz      :     0.000448  p :     0.001456
      px      :     0.000651
      py      :     0.000356

  6 O s       :     0.020545  s :     0.020545
      pz      :     0.250481  p :     0.282054
      px      :     0.004310
      py      :     0.027263
      dz2     :    -0.000021  d :    -0.000913
      dxz     :     0.000115
      dyz     :    -0.000349
      dx2y2   :    -0.000291
      dxy     :    -0.000367

  7 O s       :     0.015492  s :     0.015492
      pz      :     0.146805  p :     0.165012
      px      :     0.001157
      py      :     0.017051
      dz2     :     0.000221  d :    -0.000277
      dxz     :    -0.000330
      dyz     :     0.000340
      dx2y2   :    -0.000035
      dxy     :    -0.000473

  8 O s       :     0.007424  s :     0.007424
      pz      :     0.028542  p :     0.029396
      px      :    -0.001411
      py      :     0.002265
      dz2     :     0.000272  d :     0.000494
      dxz     :     0.000123
      dyz     :     0.000445
      dx2y2   :    -0.000226
      dxy     :    -0.000120

  9 H s       :    -0.003096  s :    -0.003096
      pz      :     0.002093  p :     0.001680
      px      :    -0.000406
      py      :    -0.000008

 10 O s       :     0.000044  s :     0.000044
      pz      :     0.000635  p :     0.000383
      px      :    -0.000239
      py      :    -0.000013
      dz2     :     0.000009  d :     0.000037
      dxz     :     0.000014
      dyz     :     0.000003
      dx2y2   :     0.000007
      dxy     :     0.000004

 11 H s       :    -0.001139  s :    -0.001139
      pz      :    -0.000240  p :    -0.002294
      px      :    -0.001640
      py      :    -0.000413

 12 H s       :    -0.000146  s :    -0.000146
      pz      :     0.000009  p :    -0.000077
      px      :    -0.000097
      py      :     0.000010

 13 O s       :     0.000249  s :     0.000249
      pz      :    -0.000318  p :    -0.000229
      px      :     0.000020
      py      :     0.000070
      dz2     :    -0.000024  d :    -0.000036
      dxz     :     0.000001
      dyz     :    -0.000009
      dx2y2   :    -0.000002
      dxy     :    -0.000002

 14 H s       :    -0.001078  s :    -0.001078
      pz      :     0.001912  p :     0.000099
      px      :    -0.000238
      py      :    -0.001574

 15 H s       :    -0.000212  s :    -0.000212
      pz      :    -0.000080  p :    -0.000292
      px      :    -0.000006
      py      :    -0.000205



                     *******************************
                     * LOEWDIN POPULATION ANALYSIS *
                     *******************************

-------------------------------------------
LOEWDIN ATOMIC CHARGES AND SPIN POPULATIONS
-------------------------------------------
   0 C :   -0.406722    0.247196
   1 C :   -0.413131    0.210978
   2 C :    0.125474    0.021898
   3 H :   -0.024218    0.008814
   4 H :   -0.024114    0.008548
   5 H :   -0.039433   -0.001464
   6 O :    0.018614    0.281536
   7 O :    0.019543    0.176017
   8 O :    0.226091    0.043260
   9 H :   -0.112955    0.001977
  10 O :    0.162004    0.000327
  11 H :   -0.223784    0.000052
  12 H :   -0.156184   -0.000297
  13 O :    0.197038    0.000273
  14 H :   -0.227791    0.000668
  15 H :   -0.120432    0.000219

----------------------------------------------------
LOEWDIN REDUCED ORBITAL CHARGES AND SPIN POPULATIONS
----------------------------------------------------
CHARGE
  0 C s       :     2.587761  s :     2.587761
      pz      :     0.777106  p :     2.594442
      px      :     0.904631
      py      :     0.912706
      dz2     :     0.117746  d :     1.224519
      dxz     :     0.214584
      dyz     :     0.152748
      dx2y2   :     0.364760
      dxy     :     0.374682

  1 C s       :     2.570702  s :     2.570702
      pz      :     0.732345  p :     2.476159
      px      :     0.856277
      py      :     0.887537
      dz2     :     0.139596  d :     1.366270
      dxz     :     0.257727
      dyz     :     0.173210
      dx2y2   :     0.400829
      dxy     :     0.394907

  2 C s       :     2.610574  s :     2.610574
      pz      :     0.931064  p :     2.806210
      px      :     0.946337
      py      :     0.928809
      dz2     :     0.091922  d :     0.457741
      dxz     :     0.052720
      dyz     :     0.098382
      dx2y2   :     0.111054
      dxy     :     0.103663

  3 H s       :     0.739074  s :     0.739074
      pz      :     0.099030  p :     0.285143
      px      :     0.071817
      py      :     0.114296

  4 H s       :     0.738944  s :     0.738944
      pz      :     0.132024  p :     0.285170
      px      :     0.072839
      py      :     0.080307

  5 H s       :     0.729424  s :     0.729424
      pz      :     0.079140  p :     0.310009
      px      :     0.118365
      py      :     0.112505

  6 O s       :     3.347596  s :     3.347596
      pz      :     1.423559  p :     4.439209
      px      :     1.421424
      py      :     1.594226
      dz2     :     0.020527  d :     0.194581
      dxz     :     0.043837
      dyz     :     0.008470
      dx2y2   :     0.060511
      dxy     :     0.061237

  7 O s       :     3.329843  s :     3.329843
      pz      :     1.474591  p :     4.462762
      px      :     1.452867
      py      :     1.535304
      dz2     :     0.019958  d :     0.187852
      dxz     :     0.039494
      dyz     :     0.013779
      dx2y2   :     0.058355
      dxy     :     0.056266

  8 O s       :     3.219602  s :     3.219602
      pz      :     1.576347  p :     4.368891
      px      :     1.491593
      py      :     1.300950
      dz2     :     0.022237  d :     0.185417
      dxz     :     0.030059
      dyz     :     0.021502
      dx2y2   :     0.055381
      dxy     :     0.056237

  9 H s       :     0.603374  s :     0.603374
      pz      :     0.134180  p :     0.509581
      px      :     0.157848
      py      :     0.217553

 10 O s       :     3.259983  s :     3.259983
      pz      :     1.672997  p :     4.527329
      px      :     1.514596
      py      :     1.339736
      dz2     :     0.006813  d :     0.050685
      dxz     :     0.004853
      dyz     :     0.003455
      dx2y2   :     0.012112
      dxy     :     0.023452

 11 H s       :     0.598814  s :     0.598814
      pz      :     0.160488  p :     0.624971
      px      :     0.302349
      py      :     0.162134

 12 H s       :     0.638981  s :     0.638981
      pz      :     0.149831  p :     0.517203
      px      :     0.174011
      py      :     0.193361

 13 O s       :     3.254608  s :     3.254608
      pz      :     1.322553  p :     4.492856
      px      :     1.656335
      py      :     1.513967
      dz2     :     0.026552  d :     0.055499
      dxz     :     0.003402
      dyz     :     0.010722
      dx2y2   :     0.009411
      dxy     :     0.005412

 14 H s       :     0.579859  s :     0.579859
      pz      :     0.148192  p :     0.647933
      px      :     0.151940
      py      :     0.347801

 15 H s       :     0.644811  s :     0.644811
      pz      :     0.208437  p :     0.475621
      px      :     0.144250
      py      :     0.122934


SPIN
  0 C s       :     0.002632  s :     0.002632
      pz      :     0.148745  p :     0.165690
      px      :     0.002341
      py      :     0.014605
      dz2     :     0.007048  d :     0.078873
      dxz     :     0.030828
      dyz     :     0.034042
      dx2y2   :     0.006796
      dxy     :     0.000160

  1 C s       :     0.001923  s :     0.001923
      pz      :     0.127874  p :     0.141677
      px      :     0.001648
      py      :     0.012155
      dz2     :     0.013315  d :     0.067378
      dxz     :     0.004371
      dyz     :     0.043327
      dx2y2   :     0.007195
      dxy     :    -0.000831

  2 C s       :    -0.001808  s :    -0.001808
      pz      :    -0.003048  p :    -0.010314
      px      :    -0.003814
      py      :    -0.003452
      dz2     :     0.008432  d :     0.034019
      dxz     :     0.005352
      dyz     :     0.016908
      dx2y2   :     0.001089
      dxy     :     0.002239

  3 H s       :     0.007025  s :     0.007025
      pz      :    -0.000186  p :     0.001789
      px      :    -0.000383
      py      :     0.002358

  4 H s       :     0.006876  s :     0.006876
      pz      :     0.001209  p :     0.001672
      px      :    -0.000420
      py      :     0.000883

  5 H s       :    -0.000073  s :    -0.000073
      pz      :    -0.000445  p :    -0.001391
      px      :    -0.000397
      py      :    -0.000548

  6 O s       :     0.005406  s :     0.005406
      pz      :     0.223952  p :     0.253562
      px      :     0.003894
      py      :     0.025716
      dz2     :     0.000431  d :     0.022568
      dxz     :     0.016860
      dyz     :     0.003102
      dx2y2   :     0.001009
      dxy     :     0.001167

  7 O s       :     0.003439  s :     0.003439
      pz      :     0.135428  p :     0.152745
      px      :     0.000677
      py      :     0.016640
      dz2     :     0.000572  d :     0.019832
      dxz     :     0.013851
      dyz     :     0.003446
      dx2y2   :     0.000965
      dxy     :     0.000999

  8 O s       :     0.000449  s :     0.000449
      pz      :     0.029777  p :     0.030340
      px      :    -0.001808
      py      :     0.002371
      dz2     :     0.002290  d :     0.012471
      dxz     :     0.005748
      dyz     :     0.003352
      dx2y2   :    -0.000092
      dxy     :     0.001173

  9 H s       :    -0.001040  s :    -0.001040
      pz      :     0.002990  p :     0.003017
      px      :    -0.000329
      py      :     0.000356

 10 O s       :    -0.000171  s :    -0.000171
      pz      :     0.001091  p :     0.000498
      px      :    -0.000525
      py      :    -0.000068
      dz2     :     0.000001  d :     0.000000
      dxz     :     0.000050
      dyz     :    -0.000003
      dx2y2   :    -0.000022
      dxy     :    -0.000025

 11 H s       :    -0.000580  s :    -0.000580
      pz      :     0.001991  p :     0.000632
      px      :    -0.001093
      py      :    -0.000266

 12 H s       :    -0.000155  s :    -0.000155
      pz      :     0.000014  p :    -0.000142
      px      :    -0.000100
      py      :    -0.000056

 13 O s       :    -0.000190  s :    -0.000190
      pz      :     0.000658  p :     0.000437
      px      :    -0.000064
      py      :    -0.000157
      dz2     :     0.000074  d :     0.000025
      dxz     :    -0.000000
      dyz     :    -0.000004
      dx2y2   :    -0.000029
      dxy     :    -0.000015

 14 H s       :    -0.000482  s :    -0.000482
      pz      :     0.001967  p :     0.001151
      px      :    -0.000135
      py      :    -0.000681

 15 H s       :     0.000147  s :     0.000147
      pz      :     0.000009  p :     0.000072
      px      :    -0.000010
      py      :     0.000073



                      *****************************
                      * MAYER POPULATION ANALYSIS *
                      *****************************

  NA   - Mulliken gross atomic population
  ZA   - Total nuclear charge
  QA   - Mulliken gross atomic charge
  VA   - Mayer's total valence
  BVA  - Mayer's bonded valence
  FA   - Mayer's free valence

  ATOM       NA         ZA         QA         VA         BVA        FA
  0 C      6.0499     6.0000    -0.0499     4.2166     4.1184     0.0982
  1 C      4.9805     6.0000     1.0195     2.1574     2.1003     0.0571
  2 C      5.3665     6.0000     0.6335     3.6915     3.6901     0.0014
  3 H      1.1125     1.0000    -0.1125     0.8514     0.8511     0.0004
  4 H      1.1175     1.0000    -0.1175     0.8469     0.8466     0.0003
  5 H      1.3370     1.0000    -0.3370     0.8313     0.8313    -0.0000
  6 O      8.8235     8.0000    -0.8235     1.4323     1.3490     0.0833
  7 O      8.7919     8.0000    -0.7919     1.5566     1.5260     0.0306
  8 O      8.5547     8.0000    -0.5547     1.6415     1.6398     0.0017
  9 H      0.8708     1.0000     0.1292     1.1065     1.1065     0.0000
 10 O      8.3416     8.0000    -0.3416     1.8509     1.8509     0.0000
 11 H      0.7772     1.0000     0.2228     0.9280     0.9280     0.0000
 12 H      0.8847     1.0000     0.1153     1.0198     1.0198     0.0000
 13 O      8.3518     8.0000    -0.3518     1.9293     1.9293    -0.0000
 14 H      0.7325     1.0000     0.2675     0.9280     0.9280     0.0000
 15 H      0.9074     1.0000     0.0926     1.0787     1.0787    -0.0000

  Mayer bond orders larger than 0.100000
B(  0-C ,  1-C ) :   0.8745 B(  0-C ,  2-C ) :   1.3250 B(  0-C ,  3-H ) :   0.1409 
B(  0-C ,  4-H ) :   0.1312 B(  0-C ,  5-H ) :   0.3179 B(  0-C ,  6-O ) :   1.2064 
B(  0-C ,  8-O ) :   0.1474 B(  1-C ,  2-C ) :  -0.1324 B(  1-C ,  5-H ) :  -0.2093 
B(  1-C ,  7-O ) :   1.2199 B(  1-C ,  8-O ) :   0.3815 B(  2-C ,  3-H ) :   0.8529 
B(  2-C ,  4-H ) :   0.8581 B(  2-C ,  5-H ) :   0.7971 B(  6-O , 11-H ) :   0.1185 
B(  7-O , 14-H ) :   0.1779 B(  8-O ,  9-H ) :   1.0010 B( 10-O , 11-H ) :   0.8526 
B( 10-O , 12-H ) :   1.0349 B( 13-O , 14-H ) :   0.7605 B( 13-O , 15-H ) :   1.0917 


-------
TIMINGS
-------

Total SCF time: 0 days 0 hours 2 min 38 sec 

Total time                  ....     158.016 sec
Sum of individual times     ....     149.301 sec  ( 94.5%)

SCF preparation             ....       0.665 sec  (  0.4%)
Fock matrix formation       ....     147.049 sec  ( 93.1%)
  Startup                   ....       0.052 sec  (  0.0% of F)
  Coulomb+Exchange Fock     ....     134.162 sec  ( 91.2% of F)
  XC integration            ....      20.907 sec  ( 14.2% of F)
    XC Preparation          ....       0.000 sec  (  0.0% of XC)
    Basis function eval.    ....       4.786 sec  ( 22.9% of XC)
    Density eval.           ....       4.931 sec  ( 23.6% of XC)
    XC-Functional eval.     ....       1.167 sec  (  5.6% of XC)
    XC-Potential eval.      ....       7.056 sec  ( 33.8% of XC)
Diagonalization             ....       0.000 sec  (  0.0%)
Density matrix formation    ....       0.230 sec  (  0.1%)
Total Energy calculation    ....       0.086 sec  (  0.1%)
Population analysis         ....       0.141 sec  (  0.1%)
Orbital Transformation      ....       0.119 sec  (  0.1%)
Orbital Orthonormalization  ....       0.000 sec  (  0.0%)
DIIS solution               ....       0.498 sec  (  0.3%)
SOSCF solution              ....       0.514 sec  (  0.3%)
Finished LeanSCF after 158.2 sec

Maximum memory used throughout the entire LEANSCF-calculation: 19.4 MB


           ************************************************************
           *        Program running with 8 parallel MPI-processes     *
           *              working on a common directory               *
           ************************************************************

------------------------------------------------------------------------------
                         ORCA PROPERTY INTEGRAL CALCULATIONS
------------------------------------------------------------------------------

GBWName                                   ... d0_freq_2_wat_non.gbw
Number of atoms                           ...     16
Number of basis functions                 ...    304
Max core memory                           ...   8000 MB

Dipole integrals                          ... YES
Quadrupole integrals                      ...  NO
Linear momentum integrals                 ...  NO
Angular momentum integrals                ...  NO
Higher moments length integrals           ...  NO
Higher moments velocity integrals         ...  NO
Kinetic energy integrals                  ...  NO
GIAO right hand sides                     ...  NO
GIAO dipole derivative integrals          ...  NO
SOC integrals                             ...  NO
EPR diamagnetic integrals (GIAO)          ...  NO
EPR gauge integrals                       ...  NO
Field gradient integrals                  ...  NO (   0 nuclei)
Spin-dipole/Fermi contact integrals       ...  NO (   0 nuclei)
Contact density integrals                 ...  NO (   0 nuclei)
Nucleus-orbit integrals                   ...  NO (   0 nuclei)
Geometric perturbations                   ... YES (  16 nuclei)

Choice of electric origin   ... Center of mass
Position of electric origin ... ( -1.9014,  3.2590,  0.2045) 
Choice of magnetic origin   ... GIAO
Position of magnetic origin ... (  0.0000,  0.0000,  0.0000) 

Calculating integrals                     ... Electric Dipole (Length)     done (  0.0 sec)
Calculating integrals                     ... Geometrical perturbation right hand sides

-----------------------
GEOMETRIC PERTURBATIONS (16 nuclei)
-----------------------

MaxCore                            ...   8000 MB
Number of batches                  ...      1

BATCH   0: Atoms    0 -   15 ( 48 perturbations)
   => H(core) and overlap derivative integrals     ... done (     0.3 sec)
   => Making and storing internal U-coefficients   ... done (     0.0 sec)
   => Exact two electron derivative integrals      ... done (   107.6 sec)
   => Exact two-electron response operators        ... done (   488.9 sec)
   => XC derivative integrals                      ... done (   167.3 sec)
   => XC response operators                        ... done (    42.4 sec)
   => Completing and storing right hand sides      ... done (     0.0 sec)
   => Total time for right hand sides = 700.6 sec

  geometrical perturbations done (700.6 sec)

Property integrals calculated in 700.6 sec

Maximum memory used throughout the entire PROPINT-calculation: 142.9 MB

-------------------------   --------------------
FINAL SINGLE POINT ENERGY      -495.254230542229
-------------------------   --------------------



           ************************************************************
           *        Program running with 8 parallel MPI-processes     *
           *              working on a common directory               *
           ************************************************************
------------------------------------------------------------------------------
                         ORCA SCF GRADIENT CALCULATION
------------------------------------------------------------------------------

Nuc. rep. gradient        (SHARK) ... done (  0.0 sec)
HCore & Overlap gradient  (SHARK) ... done (  0.1 sec)
Two-electron gradient     (SHARK) ... done ( 32.8 sec)
XC gradient                       ... done (  7.1 sec)

------------------
CARTESIAN GRADIENT
------------------

   1   C   :    0.000114128    0.000051683   -0.000014515
   2   C   :   -0.000002302   -0.000067393    0.000055541
   3   C   :   -0.000021701    0.000014724   -0.000000316
   4   H   :    0.000000261    0.000000478    0.000002413
   5   H   :    0.000002872    0.000001818   -0.000001925
   6   H   :   -0.000005090   -0.000012449    0.000004164
   7   O   :   -0.000080963   -0.000064526   -0.000007770
   8   O   :   -0.000063660    0.000037333    0.000004964
   9   O   :    0.000019871   -0.000012208   -0.000088190
  10   H   :    0.000012980    0.000086572    0.000064841
  11   O   :    0.000054247   -0.000048840   -0.000026115
  12   H   :    0.000005137    0.000093412    0.000020116
  13   H   :   -0.000058376   -0.000018607    0.000016996
  14   O   :    0.000022985    0.000008637   -0.000005326
  15   H   :   -0.000013475   -0.000076264   -0.000023542
  16   H   :    0.000013087    0.000005629   -0.000001336

Difference to translation invariance:
           :    0.0000000000   -0.0000000000   -0.0000000000

Difference to rotation invariance:
           :    0.0000117591    0.0000346004    0.0000589995

Norm of the Cartesian gradient     ...    0.0002957751
RMS gradient                       ...    0.0000426915
MAX gradient                       ...    0.0001141279

-------
TIMINGS
-------

Total SCF gradient time     ....       40.010 sec

Densities                   ....       0.002 sec  (  0.0%)
One electron gradient       ....       0.119 sec  (  0.3%)
Two electron gradient       ....      32.817 sec  ( 82.0%)
XC gradient                 ....       7.072 sec  ( 17.7%)

Maximum memory used throughout the entire SCFGRAD-calculation: 39.3 MB


           ************************************************************
           *        Program running with 8 parallel MPI-processes     *
           *              working on a common directory               *
           ************************************************************
------------------------------------------------------------------------------
                            ORCA SCF RESPONSE CALCULATION
------------------------------------------------------------------------------

GBWName                                 ... d0_freq_2_wat_non.gbw
Number of atoms                         ...     16
Number of basis functions               ...    304
Max core memory                         ...   8000 MB

Electric field perturbation             ...  NO
Quadrupolar field perturbation          ...  NO
Magnetic field perturbation (no GIAO)   ...  NO
Magnetic field perturbation (with GIAO) ...  NO
Linear momentum (velocity) perturbation ...  NO
Spin-orbit coupling perturbation        ...  NO
Choice of electric origin               ... Center of mass
Position of electric origin             ...    -1.901408     3.259008     0.204545
Choice of magnetic origin               ... GIAO
Position of magnetic origin             ...     0.000000     0.000000     0.000000
Nuclear geometric perturbations         ... YES (  48 perturbations)
Nucleus-orbit perturbations             ...  NO (   0 perturbations)
Spin-dipole/Fermi contact perturbations ...  NO (   0 perturbations)

Total number of real perturbations      ...     48
Total number of imaginary perturbations ...      0
Total number of triplet perturbations   ...      0
Total number of SOC perturbations       ...      0

Using XC Grid                  ... (d0_freq_2_wat_non.grid_cpscf.tmp) 
Recalculating density on grid  ... (d0_freq_2_wat_non.grho_cpscf0.tmp) done
Calculating the xc-kernel      ... (d0_freq_2_wat_non.fxc_cpscf0.tmp) done

                                **********************
                                * REAL PERTURBATIONS *
                                **********************



-------------------
SHARK CP-SCF DRIVER
-------------------

Dimension of the orbital basis          ...    256
Dimension of the CPSCF-problem          ...  14907
Number of operators                     ...      2
Max. number of iterations               ...    128
Convergence Tolerance                   ... 1.0e-04
Number of perturbations                 ...     48
Perturbation type                       ... REAL

----------------------------
POPLE LINEAR EQUATION SOLVER
----------------------------

  ITERATION   0:   ||err||_max =   2.8206e-01 ( 878.6 sec   0/ 48 done)
  ITERATION   1:   ||err||_max =   8.3568e-02 ( 872.7 sec   0/ 48 done)
  ITERATION   2:   ||err||_max =   4.7364e-02 ( 861.3 sec   0/ 48 done)
  ITERATION   3:   ||err||_max =   2.0639e-02 ( 861.8 sec   0/ 48 done)
  ITERATION   4:   ||err||_max =   1.1184e-02 ( 859.0 sec   0/ 48 done)
  ITERATION   5:   ||err||_max =   4.5449e-03 ( 856.3 sec   0/ 48 done)
  ITERATION   6:   ||err||_max =   1.8280e-03 ( 859.4 sec   3/ 48 done)
  ITERATION   7:   ||err||_max =   8.6808e-04 ( 793.3 sec  13/ 48 done)
  ITERATION   8:   ||err||_max =   3.8943e-04 ( 539.1 sec  30/ 48 done)
  ITERATION   9:   ||err||_max =   2.0729e-04 ( 191.2 sec  40/ 48 done)
  ITERATION  10:   ||err||_max =   9.2527e-05 (  72.3 sec  48/ 48 done)

CP-SCF equations solved in 7645.1 sec
Response densities calculated in   0.1 sec

Maximum memory used throughout the entire SCFRESP-calculation: 208.6 MB


           ************************************************************
           *        Program running with 8 parallel MPI-processes     *
           *              working on a common directory               *
           ************************************************************

------------------------------------------------------------------------------
                              ORCA PROPERTY CALCULATIONS
------------------------------------------------------------------------------

GBWName                                 ... d0_freq_2_wat_non.gbw
Number of atoms                         ...     16
Number of basis functions               ...    304
Max core memory                         ...   8000 MB

Electric properties:
Dipole moment                           ... YES
Quadrupole moment                       ...  NO
Static polarizability (Dipole/Dipole)   ...  NO
Static polarizability (Dipole/Quad.)    ...  NO
Static polarizability (Quad./Quad.)     ...  NO
Static polarizability (Velocity)        ...  NO
Static hyperpolarizability              ...  NO

Atomic electric properties:
Dipole moment                           ...  NO
Quadrupole moment                       ...  NO
Static polarizability                   ...  NO

Choice of electric origin               ... Center of mass
Position of electric origin             ...    -1.901408     3.259008     0.204545

General magnetic properties:
Magnetizability                         ...  NO

EPR properties:
g-Tensor (aka g-matrix)                 ...  NO
Zero-Field splitting spin-orbit         ...  NO
Zero-field splitting spin-spin          ...  NO
Hyperfine couplings                     ...  NO (   0 nuclei)
Quadrupole couplings                    ...  NO (   0 nuclei)
Contact density                         ...  NO (   0 nuclei)

NMR properties:
Chemical shifts                         ...  NO (   0 nuclei)
Spin-rotation constants                 ...  NO (   0 nuclei)
Spin-spin couplings                     ...  NO (   0 nuclei,    0 pairs)

Choice of magnetic origin               ... GIAO
Position of magnetic origin             ...     0.000000     0.000000     0.000000

Properties with geometric perturbations:
SCF Hessian                             ... YES
IR spectrum                             ... YES
VCD spectrum                            ...  NO
X-ray spectroscopy properties:
SCF XES/XAS/RIXS spectra                ...  NO

SCF SOC stabilization energy            ...  NO
Diagonal Born-Oppenheimer correction    ...  NO

-------------
DIPOLE MOMENT
-------------

Method             : SCF
Type of density    : Electron Density
Multiplicity       :   2
Irrep              :   0
Energy             :  -495.2542305422293794 Eh
Basis              : AO
                                X                 Y                 Z
Electronic contribution:     -1.049733550      -1.074350901      -0.034632048
Nuclear contribution   :      2.421111707       0.608831046       0.576228659
                        -----------------------------------------
Total Dipole Moment    :      1.371378156      -0.465519855       0.541596611
                        -----------------------------------------
Magnitude (a.u.)       :      1.546193284
Magnitude (Debye)      :      3.930110998



--------------------
Rotational spectrum 
--------------------
 
Rotational constants in cm-1:             0.063824             0.038928             0.024382 
Rotational constants in MHz :          1913.385516          1167.038972           730.949232 

Dipole components along the rotational axes: 
x,y,z [a.u.] :    -1.324058     0.642255     0.474439 
x,y,z [Debye]:    -3.365488     1.632483     1.205928 

 

[...]
     41      -0.003290  -0.034698   0.006508  -0.001538   0.000444  -0.000001
     42      -0.156381   0.219708  -0.141176   0.046332   0.005648   0.000127
     43       0.017969   0.269822  -0.055172   0.010257   0.013407   0.000390
     44       0.047367   0.726906  -0.144870   0.033229  -0.007173   0.000091
     45       0.015286   0.196351  -0.037993   0.008627   0.000057   0.000027
     46       0.026745   0.541892  -0.115820   0.025363  -0.000539   0.000108
     47      -0.007190  -0.105451   0.021105  -0.004997   0.000704  -0.000004
                 42         43         44         45         46         47    
      0      -0.000416  -0.000140  -0.002919   0.000694   0.000463   0.000041
      1       0.002424   0.000969   0.001896   0.000416  -0.000144  -0.000042
      2      -0.000737  -0.000259  -0.000401  -0.000188   0.000006   0.000019
      3      -0.000368  -0.010089   0.000458  -0.000648  -0.000262   0.000387
      4      -0.000382   0.000149   0.002120  -0.002483  -0.000555  -0.000100
      5       0.000144   0.000802  -0.000723   0.000854   0.000193   0.000013
      6      -0.069161  -0.001545   0.000379  -0.000044  -0.000066  -0.000004
      7       0.057230   0.002326  -0.000072  -0.000085  -0.000014  -0.000022
      8      -0.012022  -0.000531   0.000001   0.000026   0.000005   0.000009
      9      -0.013870  -0.000363  -0.000165   0.000361   0.000071   0.000026
     10      -0.179031  -0.014612   0.000835   0.002007   0.000259   0.000315
     11      -0.145602  -0.010340   0.000914   0.001060   0.000076   0.000137
     12       0.022146   0.002112  -0.000477   0.000083   0.000044  -0.000016
     13      -0.069332  -0.006026   0.000031   0.001015   0.000165   0.000162
     14       0.231052   0.016067  -0.000951  -0.001970  -0.000229  -0.000271
     15       0.814751   0.018605   0.007408   0.000396  -0.000463  -0.000012
     16      -0.458969  -0.007967  -0.001143  -0.000271  -0.000053  -0.000127
     17       0.065955   0.000736  -0.000296   0.000046   0.000053   0.000020
     18       0.000317   0.001376   0.002609  -0.000416  -0.000470  -0.000087
     19      -0.000419  -0.000866  -0.001605   0.000240   0.000022   0.000053
     20       0.000116   0.000144   0.000239  -0.000040   0.000049  -0.000006
     21       0.000204   0.005256   0.000566   0.000767   0.000024  -0.000249
     22       0.000624  -0.003534  -0.000805  -0.000136   0.000117   0.000249
     23      -0.000208   0.000416   0.000233   0.000026  -0.000041  -0.000170
     24       0.000035   0.003864  -0.001330   0.021485   0.000207  -0.000370
     25       0.000051  -0.003239  -0.000035  -0.055821   0.000263   0.000740
     26      -0.000015   0.000614   0.000135   0.016514  -0.000086  -0.000248
     27       0.000123  -0.022713   0.005075  -0.346058  -0.002800   0.005575
     28      -0.001221   0.056944  -0.011154   0.895854   0.003459  -0.011661
     29       0.000243  -0.012387   0.003052  -0.263377  -0.000836   0.004869
     30       0.000305  -0.001504  -0.049051  -0.000494  -0.020436  -0.000146
     31       0.000250  -0.001143  -0.031406  -0.000512   0.055941   0.000100
     32      -0.000122   0.000569   0.016904   0.000226  -0.014339  -0.000008
     33      -0.004636   0.023398   0.770646   0.008850  -0.050787   0.001329
     34      -0.003871   0.018887   0.561193   0.005096   0.004874   0.000852
     35       0.001873  -0.009294  -0.286834  -0.002859   0.005962  -0.000464
     36       0.000373  -0.002436  -0.008966  -0.000332   0.380373   0.001188
     37       0.000043  -0.001394  -0.059392   0.003251  -0.894379  -0.002414
     38      -0.000080   0.000925   0.019765  -0.000931   0.221319   0.000548
     39      -0.000488   0.017194  -0.000504  -0.001567   0.000015   0.008902
     40      -0.001592   0.055632  -0.001702  -0.002585   0.000034   0.002947
     41       0.000699  -0.024076   0.000591   0.001919  -0.000179   0.061326
     42       0.008586  -0.290547   0.007814   0.025254  -0.000422   0.021470
     43       0.023768  -0.842352   0.026621   0.053568  -0.000935   0.051480
     44      -0.012421   0.437128  -0.013424  -0.026645   0.000394   0.005976
     45       0.000039  -0.003384   0.000722  -0.002430   0.000289  -0.162373
     46      -0.000408   0.011896   0.000312  -0.001370   0.000275  -0.101561
     47       0.001838  -0.068529   0.003826  -0.009508   0.002503  -0.977815


-----------
IR SPECTRUM
-----------

 Mode   freq       eps      Int      T**2         TX        TY        TZ
       cm**-1   L/(mol*cm) km/mol    a.u.
----------------------------------------------------------------------------
  6:     25.52   0.000136    0.68  0.001657  (-0.040251 -0.000583 -0.006080)
  7:     52.39   0.000520    2.63  0.003099  (-0.030486  0.031827 -0.034006)
  8:     69.14   0.000316    1.60  0.001427  ( 0.035478 -0.012842  0.001716)
  9:     85.57   0.000035    0.18  0.000127  ( 0.006533 -0.007473  0.005322)
 10:    114.79   0.000801    4.05  0.002178  ( 0.006301  0.043677 -0.015171)
 11:    133.12   0.001512    7.64  0.003545  ( 0.026138  0.019593  0.049780)
 12:    188.80   0.001442    7.29  0.002384  ( 0.047951  0.002353 -0.008892)
 13:    203.41   0.001145    5.78  0.001756  (-0.040971  0.008768  0.000692)
 14:    249.98   0.015120   76.41  0.018875  (-0.129539  0.044841 -0.009152)
 15:    287.77   0.008727   44.10  0.009464  (-0.029382 -0.025995 -0.089019)
 16:    316.30   0.008737   44.16  0.008620  ( 0.044813 -0.076787  0.026760)
 17:    384.05   0.013179   66.60  0.010709  (-0.008892 -0.096234  0.036995)
 18:    389.09   0.000282    1.43  0.000226  (-0.011713  0.008628 -0.003821)
 19:    428.20   0.004433   22.40  0.003231  ( 0.036901  0.038146 -0.020351)
 20:    452.69   0.009928   50.17  0.006844  ( 0.009823  0.062568 -0.053222)
 21:    580.07   0.001724    8.71  0.000927  (-0.029696  0.005852 -0.003342)
 22:    594.58   0.007471   37.76  0.003921  (-0.037211 -0.047837  0.015753)
 23:    639.57   0.009625   48.64  0.004696  (-0.010146  0.008641  0.067222)
 24:    674.14   0.009632   48.67  0.004459  ( 0.002764 -0.008789 -0.066134)
 25:    787.92   0.000201    1.02  0.000080  (-0.001436 -0.007368  0.004839)
 26:    811.73   0.018341   92.69  0.007051  (-0.013268 -0.024157 -0.079318)
 27:    967.62   0.045002  227.42  0.014513  ( 0.085290 -0.083786  0.014793)
 28:    977.78   0.010413   52.62  0.003323  ( 0.014768 -0.053767  0.014638)
 29:   1012.22   0.000001    0.01  0.000000  (-0.000145 -0.000303 -0.000472)
 30:   1120.97   0.051181  258.65  0.014248  ( 0.051800  0.101191 -0.036404)
 31:   1324.37   0.020700  104.61  0.004878  (-0.004075 -0.067018  0.019225)
 32:   1347.68   0.015312   77.38  0.003546  ( 0.051743 -0.029144  0.004349)
 33:   1401.82   0.007776   39.30  0.001731  ( 0.040466 -0.009653  0.000574)
 34:   1455.89   0.009319   47.10  0.001998  (-0.038614  0.022388 -0.002297)
 35:   1460.15   0.001000    5.06  0.000214  (-0.005092 -0.001802 -0.013587)
 36:   1518.61   0.121148  612.23  0.024895  ( 0.138019 -0.074814  0.015773)
 37:   1676.19   0.007010   35.43  0.001305  ( 0.017704  0.025726  0.018160)
 38:   1701.87   0.012716   64.26  0.002332  (-0.009412 -0.044634  0.015841)
 39:   1712.23   0.037114  187.56  0.006764  (-0.078892  0.023084  0.002748)
 40:   3021.71   0.021424  108.27  0.002213  ( 0.015322  0.042066 -0.014431)
 41:   3077.83   0.009962   50.34  0.001010  ( 0.002473  0.009052  0.030365)
 42:   3154.72   0.004932   24.93  0.000488  (-0.017500  0.013091 -0.003212)
 43:   3211.20   0.261931  1323.69  0.025454  ( 0.019020 -0.143719  0.066614)
 44:   3481.44   0.186788  943.95  0.016743  ( 0.120975  0.037031 -0.027142)
 45:   3754.71   0.073835  373.13  0.006137  (-0.020339  0.070735 -0.026825)
 46:   3931.16   0.003869   19.55  0.000307  ( 0.004151 -0.016423  0.004495)
 47:   3945.63   0.007252   36.65  0.000574  (-0.003445  0.012544 -0.020108)

* The epsilon (eps) is given for a Dirac delta lineshape.
** The dipole moment derivative (T) already includes vibrational overlap.

The first frequency considered to be a vibration is 6
The total number of vibrations considered is 42


--------------------------
THERMOCHEMISTRY AT 298.15K
--------------------------

Temperature         ...   298.15 K
Pressure            ...     1.00 atm
Total Mass          ...   124.09 AMU
Quasi RRHO          ...     True
Cut-Off Frequency   ...     1.00 cm^-1

Throughout the following assumptions are being made:
  (1) The electronic state is orbitally nondegenerate
      but the spin degeneracy is treated
  (2) There are no thermally accessible electronically excited states
  (3) Hindered rotations indicated by low frequency modes are not
      treated as such but are treated as vibrations and this may
      cause some error
  (4) All equations used are the standard statistical mechanics
      equations for an ideal gas
  (5) All vibrations are strictly harmonic

freq.      25.52  E(vib)   ...       0.56 
freq.      52.39  E(vib)   ...       0.52 
freq.      69.14  E(vib)   ...       0.50 
freq.      85.57  E(vib)   ...       0.48 
freq.     114.79  E(vib)   ...       0.44 
freq.     133.12  E(vib)   ...       0.42 
freq.     188.80  E(vib)   ...       0.36 
freq.     203.41  E(vib)   ...       0.35 
freq.     249.98  E(vib)   ...       0.31 
freq.     287.77  E(vib)   ...       0.27 
freq.     316.30  E(vib)   ...       0.25 
freq.     384.05  E(vib)   ...       0.20 
freq.     389.09  E(vib)   ...       0.20 
freq.     428.20  E(vib)   ...       0.18 
freq.     452.69  E(vib)   ...       0.16 
freq.     580.07  E(vib)   ...       0.11 
freq.     594.58  E(vib)   ...       0.10 
freq.     639.57  E(vib)   ...       0.09 
freq.     674.14  E(vib)   ...       0.08 
freq.     787.92  E(vib)   ...       0.05 
freq.     811.73  E(vib)   ...       0.05 
freq.     967.62  E(vib)   ...       0.03 
freq.     977.78  E(vib)   ...       0.03 
freq.    1012.22  E(vib)   ...       0.02 
freq.    1120.97  E(vib)   ...       0.01 
freq.    1324.37  E(vib)   ...       0.01 
freq.    1347.68  E(vib)   ...       0.01 
freq.    1401.82  E(vib)   ...       0.00 
freq.    1455.89  E(vib)   ...       0.00 
freq.    1460.15  E(vib)   ...       0.00 
freq.    1518.61  E(vib)   ...       0.00 
freq.    1676.19  E(vib)   ...       0.00 
freq.    1701.87  E(vib)   ...       0.00 
freq.    1712.23  E(vib)   ...       0.00 
freq.    3021.71  E(vib)   ...       0.00 
freq.    3077.83  E(vib)   ...       0.00 
freq.    3154.72  E(vib)   ...       0.00 
freq.    3211.20  E(vib)   ...       0.00 
freq.    3481.44  E(vib)   ...       0.00 
freq.    3754.71  E(vib)   ...       0.00 
freq.    3931.16  E(vib)   ...       0.00 
freq.    3945.63  E(vib)   ...       0.00 

------------
INNER ENERGY
------------

The inner energy is: U= E(el) + E(ZPE) + E(vib) + E(rot) + E(trans)
    E(el)   - is the total energy from the electronic structure calculation
              = E(kin-el) + E(nuc-el) + E(el-el) + E(nuc-nuc)
    E(ZPE)  - the the zero temperature vibrational energy from the frequency calculation
    E(vib)  - the the finite temperature correction to E(ZPE) due to population
              of excited vibrational states
    E(rot)  - is the rotational thermal energy
    E(trans)- is the translational thermal energy

Summary of contributions to the inner energy U:
Electronic energy                ...   -495.25423054 Eh
Zero point energy                ...      0.12011555 Eh      75.37 kcal/mol
Thermal vibrational correction   ...      0.00924504 Eh       5.80 kcal/mol
Thermal rotational correction    ...      0.00141627 Eh       0.89 kcal/mol
Thermal translational correction ...      0.00141627 Eh       0.89 kcal/mol
-----------------------------------------------------------------------
Total thermal energy                   -495.12203741 Eh


Summary of corrections to the electronic energy:
(perhaps to be used in another calculation)
Total thermal correction                  0.01207758 Eh       7.58 kcal/mol
Non-thermal (ZPE) correction              0.12011555 Eh      75.37 kcal/mol
-----------------------------------------------------------------------
Total correction                          0.13219313 Eh      82.95 kcal/mol


--------
ENTHALPY
--------

The enthalpy is H = U + kB*T
                kB is Boltzmann's constant
Total thermal energy              ...   -495.12203741 Eh 
Thermal Enthalpy correction       ...      0.00094421 Eh       0.59 kcal/mol
-----------------------------------------------------------------------
Total Enthalpy                    ...   -495.12109320 Eh


Note: Only C1 symmetry has been detected, increase convergence thresholds 
      if your molecule has a higher symmetry. Symmetry factor of 1.0 is   
      used for the rotational entropy correction. 
 

Note: Rotational entropy computed according to Herzberg 
Infrared and Raman Spectra, Chapter V,1, Van Nostrand Reinhold, 1945 
Point Group:  C1, Symmetry Number:   1  
Rotational constants in cm-1:     0.063824     0.038928     0.024382 

Vibrational entropy computed according to the QRRHO of S. Grimme
Chem.Eur.J. 2012 18 9955 using a reference frequency of 100.0 cm-1


-------
ENTROPY
-------

The entropy contributions are T*S = T*(S(el)+S(vib)+S(rot)+S(trans))
     S(el)   - electronic entropy
     S(vib)  - vibrational entropy
     S(rot)  - rotational entropy
     S(trans)- translational entropy
The entropies will be listed as multiplied by the temperature to get
units of energy

Electronic entropy                ...      0.00065446 Eh      0.41 kcal/mol
Vibrational entropy               ...      0.01684790 Eh     10.57 kcal/mol
Rotational entropy                ...      0.01409555 Eh      8.85 kcal/mol
Translational entropy             ...      0.01917695 Eh     12.03 kcal/mol
-----------------------------------------------------------------------
Final entropy term                ...      0.05077486 Eh     31.86 kcal/mol

In case the symmetry of your molecule has not been determined correctly
or in case you have a reason to use a different symmetry number we print 
out the resulting rotational entropy values for sn=1,12:

 non-linear molecules -----------------------------------
|  sn= 1 | S(rot)=       0.01409555 Eh      8.85 kcal/mol|
|  sn= 2 | S(rot)=       0.01344110 Eh      8.43 kcal/mol|
|  sn= 3 | S(rot)=       0.01305827 Eh      8.19 kcal/mol|
|  sn= 4 | S(rot)=       0.01278664 Eh      8.02 kcal/mol|
|  sn= 5 | S(rot)=       0.01257595 Eh      7.89 kcal/mol|
|  sn= 6 | S(rot)=       0.01240381 Eh      7.78 kcal/mol|
|  sn= 7 | S(rot)=       0.01225826 Eh      7.69 kcal/mol|
|  sn= 8 | S(rot)=       0.01213219 Eh      7.61 kcal/mol|
|  sn= 9 | S(rot)=       0.01202098 Eh      7.54 kcal/mol|
|  sn=10 | S(rot)=       0.01192150 Eh      7.48 kcal/mol|
|  sn=11 | S(rot)=       0.01183151 Eh      7.42 kcal/mol|
|  sn=12 | S(rot)=       0.01174935 Eh      7.37 kcal/mol|
 linear molecules ---------------------------------------
|  Dinfh | S(rot)=       0.00883241 Eh      5.54 kcal/mol|
|  Cinfv | S(rot)=       0.00948687 Eh      5.95 kcal/mol|
 --------------------------------------------------------


-------------------
GIBBS FREE ENERGY
-------------------

The Gibbs free energy is G = H - T*S

Total enthalpy                    ...   -495.12109320 Eh 
Total entropy correction          ...     -0.05077486 Eh    -31.86 kcal/mol
-----------------------------------------------------------------------
Final Gibbs free energy         ...   -495.17186806 Eh

For completeness - the Gibbs free energy minus the electronic energy
G-E(el)                           ...      0.08236248 Eh     51.68 kcal/mol


Maximum memory used throughout the entire PROP-calculation: 46.8 MB

--------------------------------
SUGGESTED CITATIONS FOR THIS RUN
--------------------------------

Below you find a list of papers that are relevant to this ORCA run
We neither can nor want to force you to cite these papers, but we appreciate if you do
You receive ORCA, which is the product of decades of hard work by many enthusiastic individuals, for free
The only thing we kindly ask in return is that you cite our papers,
We deeply appreciate it, if you show your appreciation for ORCA by not just citing the generic ORCA reference.

Please note that relegating all ORCA citations to the supporting information does *not* help us.
SI sections are not indexed - citations you put there will not count into any citation statistics
But we need these citations in order to attract the funding resources that allow us to do what we are doing

Therefore, if you are a happy ORCA user, please consider citing a few of the papers listed below in the main body of your paper

In addition to the list printed below, the program has created the file d0_freq_2_wat_non.bibtex that contains the list in bibtex format
You can import this file easily into all common literature databanks and citation aid programs


List of essential papers. We consider these as the minimum necessary citations

  1. Neese, F.
     Software update: the ORCA program system, version 6.0
     WIRES Comput. Molec. Sci. 2025 15(1), e70019
     doi.org/10.1002/wcms.7019

List of papers to cite with high priority. The work reported in these papers was absolutely
necessary for this run to complete.
Our perspective: the developers of density functionals and basis sets usually get cited in chemistry papers
Good! But without the algorithms to do something with them, the functionals or basis sets would not do anything.
Hence, in our opinion, the algorithm design and method developments papers are equally worthy of getting cited

  1. Bykov, D.; Petrenko, T.; Izsak, R.; Kossmann, S.; Becker, U.; Valeev, E.; Neese, F.
     Efficient implementation of the analytic second derivatives of Hartree-Fock and hybrid DFT energies: a detailed analysis of different approximations
     Molec. Phys. 2015 113 , 1961-1977
     doi.org/10.1080/00268976.2015.1025114
  2. Lehtola, S.; Steigemann, C.; Oliveira, M.; Marques, M.
     Recent developments in Libxc - A comprehensive library of functionals for density functional theory
     Software X 2018 7 , 
     doi.org/10.1016/j.softx.2017.11.002
  3. Neese, F.
     The SHARK Integral Generation and Digestion System
     J. Comp. Chem. 2022 44(3), 381
     doi.org/10.1002/jcc.26942

List of suggested additional citations. These are papers that are important in the 'surrounding' of 
of this run, or papers that preceded the highly important papers. If you like your results we are grateful for a citation.

  1. Neese, F.
     The ORCA program system
     WIRES Comput. Molec. Sci. 2012 2(1), 73-78
     doi.org/10.1002/wcms.81
  2. Neese, F.
     Software update: the ORCA program system, version 4.0
     WIRES Comput. Molec. Sci. 2018 8(1), 1-6
     doi.org/10.1002/wcms.1327
  3. Neese, F.; Wennmohs, F.; Becker, U.; Riplinger, C.
     The ORCA quantum chemistry program package
     J. Chem. Phys. 2020 152(22), 224108
     doi.org/10.1063/5.0004608
  4. Neese, F.
     Software update: The ORCA program system—Version 5.0
     WIRES Comput. Molec. Sci. 2022 12(1), e1606
     doi.org/10.1002/wcms.1606

List of optional additional citations

  1. Neese, F.
     Approximate second-order SCF convergence for spin unrestricted wavefunctions
     Chem. Phys. Lett. 2000 325(1-3), 93-98
     doi.org/10.1016/s0009-2614(00)00662-x

Timings for individual modules:

Sum of individual times          ...     8903.241 sec (= 148.387 min)
Startup calculation              ...       12.441 sec (=   0.207 min)   0.1 %
SCF iterations                   ...      159.800 sec (=   2.663 min)   1.8 %
Property integrals               ...      701.545 sec (=  11.692 min)   7.9 %
SCF Response                     ...     7646.656 sec (= 127.444 min)  85.9 %
Property calculations            ...      341.453 sec (=   5.691 min)   3.8 %
SCF Gradient evaluation          ...       41.345 sec (=   0.689 min)   0.5 %
                             ****ORCA TERMINATED NORMALLY****
TOTAL RUN TIME: 0 days 2 hours 28 minutes 24 seconds 650 msec
