
                                 *****************
                                 * O   R   C   A *
                                 *****************

                                            #,                                       
                                            ###                                      
                                            ####                                     
                                            #####                                    
                                            ######                                   
                                           ########,                                 
                                     ,,################,,,,,                         
                               ,,#################################,,                 
                          ,,##########################################,,             
                       ,#########################################, ''#####,          
                    ,#############################################,,   '####,        
                  ,##################################################,,,,####,       
                ,###########''''           ''''###############################       
              ,#####''   ,,,,##########,,,,          '''####'''          '####       
            ,##' ,,,,###########################,,,                        '##       
           ' ,,###''''                  '''############,,,                           
         ,,##''                                '''############,,,,        ,,,,,,###''
      ,#''                                            '''#######################'''  
     '                                                          ''''####''''         
             ,#######,   #######,   ,#######,      ##                                
            ,#'     '#,  ##    ##  ,#'     '#,    #''#        ,####,    ,#,          
            ##       ##  ##   ,#'  ##            #'  '#       #'       ,# #          
            ##       ##  #######   ##           ,######,      #####,      #          
            '#,     ,#'  ##    ##  '#,     ,#' ,#      #,     #,   #      #          
             '#######'   ##     ##  '#######'  #'      '#     '####' #    #          



                #########################################################
                #                        -***-                          #
                #          Department of theory and spectroscopy        #
                #                                                       #
                #                      Frank Neese                      #
                #                                                       #
                #     Directorship, Architecture, Infrastructure        #
                #                    SHARK, DRIVERS                     #
                #        Core code/Algorithms in most modules           #
                #                                                       #
                #        Max Planck Institute fuer Kohlenforschung      #
                #                Kaiser Wilhelm Platz 1                 #
                #                 D-45470 Muelheim/Ruhr                 #
                #                      Germany                          #
                #                                                       #
                #                  All rights reserved                  #
                #                        -***-                          #
                #########################################################


                         Program Version 6.1.0  -  RELEASE   -
                                (GIT: $679e74b$)
                          ($2025-06-10 18:02:51 +0200$)


 With contributions from (in alphabetic order):
[Max-Planck-Institut fuer Kohlenforschung]                               
  Daniel Aravena         : Magnetic Suceptibility                        
  Michael Atanasov       : Ab Initio Ligand Field Theory (pilot matlab implementation)
  Alexander A. Auer      : GIAO ZORA, VPT2 properties, NMR spectrum      
  Ute Becker             : All parallelization in ORCA, NUMFREQ, NUMCALC 
  Giovanni Bistoni       : ED, misc. LED, open-shell LED, HFLD           
  Dmytro Bykov           : pre 5.0 version of the SCF Hessian            
  Marcos Casanova-Páez   : Triplet and SCS-CIS(D). UHF-(DLPNO)-IP/EA/STEOM-CCSD. UHF-CVS-IP/STEOM-CCSD   
  Vijay G. Chilkuri      : MRCI spin determinant printing, contributions to CSF-ICE 
  Pauline Colinet        : FMM embedding                                 
  Dipayan Datta          : RHF DLPNO-CCSD density                        
  Achintya Kumar Dutta   : EOM-CC, STEOM-CC                              
  Nicolas Foglia         : Exact transition moments, OPA infrastructure, MCD improvements    
  Dmitry Ganyushin       : Spin-Orbit,Spin-Spin,Magnetic field MRCI      
  Miquel Garcia-Rates    : C-PCM and meta-GGA Hessian, CCSD/C-PCM, Gaussian charge scheme 
  Tiago L. C. Gouveia    : GS-ROHF, GS-ROCIS                             
  Yang Guo               : DLPNO-NEVPT2, F12-NEVPT2, CIM, IAO-localization        
  Andreas Hansen         : Spin unrestricted coupled pair/coupled cluster methods 
  Ingolf Harden          : AUTO-CI MPn and infrastructure                
  Benjamin Helmich-Paris : MC-RPA, TRAH-(SCF,CASSCF), AVAS, COSX integrals, SCF dyn. polar., MC-PDFT, srDFT 
  Lee Huntington         : MR-EOM, pCC                                   
  Robert Izsak           : Overlap fitted RIJCOSX, COSX-SCS-MP3, EOM     
  Riya Kayal             : Wick's Theorem for AUTO-CI, AUTO-CI UHF-CCSDT 
  Emily Kempfer          : AUTO-CI RHF CISDT and CCSDT, approximate NEVPT4
  Christian Kollmar      : KDIIS, OOCD, Brueckner-CCSD(T), CCSD density, CASPT2, CASPT2-K, improved NEVPT2 
  Axel Koslowski         : Symmetry handling                             
  Simone Kossmann        : meta-GGA functionals, TD-DFT gradient, OOMP2, (MP2 Hessian; deprecated post 5.0) 
  Lucas Lang             : DCDCAS, Hyperfine gauge corrections, ICE-SOC+SSC
  Marvin Lechner         : AUTO-CI (C++ implementation), FIC-MRCC        
  Spencer Leger          : CASSCF response                               
  Dagmar Lenk            : GEPOL surface, SMD, ORCA-2-JSON               
  Dimitrios Liakos       : Extrapolation schemes; Compound Job, Property file
  Dimitrios Manganas     : Further ROCIS development; embedding schemes. LFT, Crystal Embedding 
  Dimitrios Pantazis     : SARC Basis sets                               
  Anastasios Papadopoulos: AUTO-CI, single reference methods and gradients 
  Taras Petrenko         : pre 6.0 DFT Hessian and TD-DFT gradient,  ECA, NRVS 
  Petra Pikulova         : Analytic Raman intensities                    
  Peter Pinski           : DLPNO-MP2, DLPNO-MP2 Gradient                 
  Shashank Vittal Rao    : ES-AILFT, MagRelax                            
  Christoph Reimann      : Effective Core Potentials                     
  Marius Retegan         : Local ZFS, SOC                                
  Christoph Riplinger    : Optimizer, TS searches, QM/MM, DLPNO-CCSD(T), (RO)-DLPNO pert. Triples 
  Michael Roemelt        : Original ROCIS implementation, recursive CI coupling coefficients
  Masaaki Saitow         : Open-shell DLPNO-CCSD energy and density      
  Barbara Sandhoefer     : DKH picture change effects                    
  Yorick L. A. Schmerwitz: GMF and freeze-and-release deltaSCF, NEB S-IDPP initial path                    
  Kantharuban Sivalingam : CASSCF convergence/infrastructure, NEVPT2, NEVPT3, NEVPT4(SD), FIC-MRCI and CEPA variants
  Bernardo de Souza      : ESD, SOC TD-DFT                               
  Georgi L. Stoychev     : AutoAux, RI-MP2 NMR, DLPNO-MP2 response, X2C  
  Van Anh Tran           : RI-MP2 g-tensors                              
  Willem Van den Heuvel  : Paramagnetic NMR                              
  Zikuan Wang            : NOTCH, Electric field optimization            
  Frank Wennmohs         : Technical directorship and infrastructure     
  Hang Xu                : AUTO-CI-Response properties                   
                                                                         
[FACCTs GmbH]                                                            
  Markus Bursch, Nicolas Foglia, Miquel Garcia-Rates, Ingolf Harden, Hagen Neugebauer, Anastasios Papadopoulos, 
  Christoph Riplinger, Bernardo de Souza, Georgi L. Stoychev                                                    
                                                                 
  APM, various basis sets, CI-OPT, improved COSX, DLPNO-Multilevel,           
  DOCKER, DRACO, updates on ESD, Fragmentator, GOAT, IRC, LR-CPCM, L-BFGS, MBIS, meta-GGA TD-DFT gradient, ML-optimized integration grids, 
  MM, NACMEs, nearIR, NEB, NEB-TS, NL-DFT gradient (VV10), 2- and 3-layer-ONIOM, interface openCOSMO-RS, QMMM,   
  Crystal-QMMM, RESP, rigid body optimization, SF, symmetry and pop. for TD-DFT, various functionals, SOLVATOR                                   
                                                                         
[Other institutions]                                                     
  V. Asgeirsson          : NEB                                           
  Christoph Bannwarth    : sTDA-DFT, sTD-DFT, PBEh-3c, B97-3c, D3        
  Giovanni Bistoni       : ETS/NOCV, ADLD/ADEX, COVALED                  
  Martin Brehm           : Molecular dynamics                            
  Ronald Cardenas        : ETS/NOCV                                      
  Martina Colucci        : COVALED                                       
  Sebastian Ehlert       : rSCAN, r2SCAN, r2SCAN-3c, D4, dhf basis sets  
  Marvin Friede          : D4 for Fr, Ra, Ac-Lr                          
  Lars Goerigk           : TD-DFT with DH, B97 family of functionals     
  Stefan Grimme          : VdW corrections, initial TS optimization, DFT functionals, gCP, sTDA/sTD-DF 
  Waldemar Hujo          : DFT-NL                                        
  H. Jonsson             : NEB                                           
  Holger Kruse           : gCP                                           
  Marcel Mueller         : wB97X-3c, vDZP basis set                      
  Hagen Neugebauer       : wr2SCAN, Native XTB                           
  Gianluca Regni         : ADLD/ADEX                                     
  Tobias Risthaus        : pre 6.0 range-separated hybrid DFT and stability analysis
  Lukas Wittmann         : regularized MP2, r2SCAN double-hybrids, wr2SCAN        
                                                                         
We gratefully acknowledge several colleagues who have allowed us to      
interface, adapt or use parts of their codes:                            
  Ed Valeev, F. Pavosevic, A. Kumar             : LibInt (2-el integral package), F12 methods 
  Garnet Chan, S. Sharma, J. Yang, R. Olivares  : DMRG                   
  Ulf Ekstrom                                   : XCFun DFT Library      
  Mihaly Kallay                                 : mrcc  (arbitrary order and MRCC methods)
  Frank Weinhold                                : gennbo (NPA and NBO analysis)           
  Simon Mueller                                 : openCOSMO-RS                            
  Christopher J. Cramer and Donald G. Truhlar   : smd solvation model                     
  S Lehtola, MJT Oliveira, MAL Marques          : LibXC Library                           
  Liviu Ungur et al                             : ANISO software                          


 Your calculation uses the libint2 library for the computation of 2-el integrals
 For citations please refer to: http://libint.valeyev.net

 Your ORCA version has been built with support for libXC version: 7.0.0
 For citations please refer to: https://libxc.gitlab.io

 This ORCA versions uses:
   CBLAS   interface :  Fast vector & matrix operations
   LAPACKE interface :  Fast linear algebra routines
   SCALAPACK package :  Parallel linear algebra routines
   Shared memory     :  Shared parallel matrices
   BLAS/LAPACK       :  OpenBLAS 0.3.29  USE64BITINT DYNAMIC_ARCH NO_AFFINITY SkylakeX SINGLE_THREADED
        Core in use  :  SkylakeX
   Copyright (c) 2011-2014, The OpenBLAS Project


  ***********************************
  * Starting time: Wed Jan 28 11:45:57 2026
  * Host name:     bp1-compute155
  * Process ID:    1211172
  * Working dir.:  /user/work/kp22738/Diss/Orca/pyruvic_anion/dyson_orbitals/2_wat_non/15365059_s0_freq_2_wat_non
  ***********************************

NOTE: MaxCore=8000 MB was set to SCF,MP2,MDCI,CIPSI,MRCI,RASCI and CIS
      => If you want to overwrite this, your respective input block should be placed after the MaxCore statement
Using LibXC functional ID 471 : wB97X-D range-separated functional
[ 1]  J.-D. Chai and M. Head-Gordon.,  Phys. Chem. Chem. Phys. 10, 6615-6620 (2008)
Using LibXC functional ID 471 : wB97X-D range-separated functional
[ 1]  J.-D. Chai and M. Head-Gordon.,  Phys. Chem. Chem. Phys. 10, 6615-6620 (2008)
Your calculation utilizes LibXC
by S. Lehtola, C. Steigemann, M. J. T. Oliveira & M. A. L. Marques
Please cite in your paper:
Lehtola, S.; Steigemann, C.; Oliveira, M.J.T.; Marques, M. A. L. Software X, 7, (2018), 1.
   

================================================================================

----- Orbital basis set information -----
Your calculation utilizes the basis: aug-cc-pVDZ 
    H, B-Ne : Obtained from the ccRepo (grant-hill.group.shef.ac.uk/ccrepo) Feb. 2017
              R. A. Kendall, T. H. Dunning, Jr., R. J. Harrison, J. Chem. Phys. 96, 6796 (1992)
         He : Obtained from the ccRepo (grant-hill.group.shef.ac.uk/ccrepo) Feb. 2017
              D. E. Woon, T. H. Dunning, Jr., J. Chem. Phys. 100, 2975 (1994)
  Li-Be, Na : Obtained from the ccRepo (grant-hill.group.shef.ac.uk/ccrepo) Feb. 2017
              B. P. Prascher, D. E. Woon, K. A. Peterson, T. H. Dunning, Jr., A. K. Wilson, Theor. Chem. Acc. 128, 69 (2011)
         Mg : Obtained from the Peterson Research Group Website (tyr0.chem.wsu.edu/~kipeters) Feb. 2017
              B. P. Prascher, D. E. Woon, K. A. Peterson, T. H. Dunning, Jr., A. K. Wilson, Theor. Chem. Acc. 128, 69 (2011)
      Al-Ar : Obtained from the ccRepo (grant-hill.group.shef.ac.uk/ccrepo) Feb. 2017
              D. E. Woon, T. H. Dunning, Jr., J. Chem. Phys. 98, 1358 (1993)
      Sc-Zn : Obtained from the ccRepo (grant-hill.group.shef.ac.uk/ccrepo) Feb. 2017
              N. B. Balabanov, K. A. Peterson, J. Chem. Phys. 123, 064107 (2005)
              N. B. Balabanov, K. A. Peterson, J. Chem. Phys. 125, 074110 (2006)
      Ga-Kr : Obtained from the ccRepo (grant-hill.group.shef.ac.uk/ccrepo) Feb. 2017
              A. K. Wilson, D. E. Woon, K. A. Peterson, T. H. Dunning, Jr., J. Chem. Phys. 110, 7667 (1999)

================================================================================
                                        WARNINGS
                       Please study these warnings very carefully!
================================================================================


================================================================================
                                       INPUT FILE
================================================================================
NAME = s0_freq_2_wat_non.inp
|  1> ! aug-cc-pVDZ TightSCF DEFGRID3 Engrad ANFREQ
|  2> 
|  3> %PAL NPROCS 8 END
|  4> 
|  5> %maxcore 8000
|  6> 
|  7> %method
|  8> method dft
|  9> functional hyb_gga_xc_wb97x_d
| 10> end
| 11> 
| 12> * xyz 0 1
| 13>   C     -0.781619    2.941696   -0.355449
| 14>   C     -0.488224    1.600086    0.048194
| 15>   C      0.390157    3.821511   -0.737226
| 16>   H      0.415675    4.707737   -0.083181
| 17>   H      0.257049    4.185181   -1.768394
| 18>   H      1.342258    3.284935   -0.659930
| 19>   O     -1.957549    3.424569   -0.408821
| 20>   O      0.666084    1.085673    0.121898
| 21>   O     -1.576054    0.826243    0.380493
| 22>   H     -1.218492   -0.037605    0.635046
| 23>   O     -4.306914    2.192235    0.312235
| 24>   H     -3.505500    2.694460    0.039322
| 25>   H     -3.907050    1.342788    0.517072
| 26>   O      0.373461   -1.343542    1.125590
| 27>   H      0.638374   -0.472270    0.721358
| 28>   H      0.536794   -1.221103    2.063221
| 29> * 
| 30> 
| 31>                          ****END OF INPUT****
================================================================================

                     *******************************
                     * Energy+Gradient Calculation *
                     *******************************

---------------------------------
CARTESIAN COORDINATES (ANGSTROEM)
---------------------------------
  C     -0.781619    2.941696   -0.355449
  C     -0.488224    1.600086    0.048194
  C      0.390157    3.821511   -0.737226
  H      0.415675    4.707737   -0.083181
  H      0.257049    4.185181   -1.768394
  H      1.342258    3.284935   -0.659930
  O     -1.957549    3.424569   -0.408821
  O      0.666084    1.085673    0.121898
  O     -1.576054    0.826243    0.380493
  H     -1.218492   -0.037605    0.635046
  O     -4.306914    2.192235    0.312235
  H     -3.505500    2.694460    0.039322
  H     -3.907050    1.342788    0.517072
  O      0.373461   -1.343542    1.125590
  H      0.638374   -0.472270    0.721358
  H      0.536794   -1.221103    2.063221

----------------------------
CARTESIAN COORDINATES (A.U.)
----------------------------
  NO LB      ZA    FRAG     MASS         X           Y           Z
   0 C     6.0000    0    12.011   -1.477046    5.559000   -0.671701
   1 C     6.0000    0    12.011   -0.922610    3.023724    0.091073
   2 C     6.0000    0    12.011    0.737290    7.221609   -1.393155
   3 H     1.0000    0     1.008    0.785512    8.896334   -0.157189
   4 H     1.0000    0     1.008    0.485752    7.908846   -3.341780
   5 H     1.0000    0     1.008    2.536500    6.207628   -1.247087
   6 O     8.0000    0    15.999   -3.699232    6.471498   -0.772560
   7 O     8.0000    0    15.999    1.258716    2.051625    0.230354
   8 O     8.0000    0    15.999   -2.978310    1.561373    0.719028
   9 H     1.0000    0     1.008   -2.302616   -0.071063    1.200063
  10 O     8.0000    0    15.999   -8.138888    4.142724    0.590039
  11 H     1.0000    0     1.008   -6.624435    5.091791    0.074308
  12 H     1.0000    0     1.008   -7.383254    2.537502    0.977124
  13 O     8.0000    0    15.999    0.705739   -2.538926    2.127057
  14 H     1.0000    0     1.008    1.206352   -0.892461    1.363169
  15 H     1.0000    0     1.008    1.014394   -2.307550    3.898923

--------------------------------
INTERNAL COORDINATES (ANGSTROEM)
--------------------------------
 C      0   0   0     0.000000000000     0.00000000     0.00000000
 C      1   0   0     1.431406891689     0.00000000     0.00000000
 C      1   2   0     1.514228221283   117.19785668     0.00000000
 H      3   1   2     1.101736154179   109.61056668   239.25063695
 H      3   1   2     1.101490377982   109.53304611   122.09547511
 H      3   1   2     1.095620732550   111.72358446     0.66821795
 O      1   2   3     1.272331037668   123.84710402   180.00274798
 O      2   1   3     1.265890979922   125.74597018     0.44164539
 O      2   1   3     1.375728797020   115.67379381   180.36858719
 H      9   2   1     0.968958812725   105.85126533   180.46714037
 O      7   1   2     2.749197109324   127.49512707     3.12902235
 H     11   7   1     0.984365712319     4.32512410   177.20472380
 H     11   7   1     0.960942048655    95.54069632   356.01147104
 O     10   9   2     2.116700077506   152.68007369    10.32597382
 H     14  10   9     0.996341962068    64.30535248   346.93230554
 H     14  10   9     0.959594117203   106.00595599    84.89848052

---------------------------
INTERNAL COORDINATES (A.U.)
---------------------------
 C      0   0   0     0.000000000000     0.00000000     0.00000000
 C      1   0   0     2.704967011499     0.00000000     0.00000000
 C      1   2   0     2.861476642480   117.19785668     0.00000000
 H      3   1   2     2.081979603238   109.61056668   239.25063695
 H      3   1   2     2.081515153536   109.53304611   122.09547511
 H      3   1   2     2.070423131165   111.72358446     0.66821795
 O      1   2   3     2.404357212880   123.84710402   180.00274798
 O      2   1   3     2.392187267455   125.74597018     0.44164539
 O      2   1   3     2.599750660917   115.67379381   180.36858719
 H      9   2   1     1.831066791099   105.85126533   180.46714037
 O      7   1   2     5.195229624791   127.49512707     3.12902235
 H     11   7   1     1.860181611906     4.32512410   177.20472380
 H     11   7   1     1.815917302528    95.54069632   356.01147104
 O     10   9   2     3.999983454136   152.68007369    10.32597382
 H     14  10   9     1.882813444042    64.30535248   346.93230554
 H     14  10   9     1.813370081236   106.00595599    84.89848052

---------------------
BASIS SET INFORMATION
---------------------
There are 3 groups of distinct atoms

 Group   1 Type C   : 18s5p2d contracted to 4s3p2d pattern {8811/311/11}
 Group   2 Type H   : 5s2p contracted to 3s2p pattern {311/11}
 Group   3 Type O   : 18s5p2d contracted to 4s3p2d pattern {8811/311/11}

Atom   0C    basis set group =>   1
Atom   1C    basis set group =>   1
Atom   2C    basis set group =>   1
Atom   3H    basis set group =>   2
Atom   4H    basis set group =>   2
Atom   5H    basis set group =>   2
Atom   6O    basis set group =>   3
Atom   7O    basis set group =>   3
Atom   8O    basis set group =>   3
Atom   9H    basis set group =>   2
Atom  10O    basis set group =>   3
Atom  11H    basis set group =>   2
Atom  12H    basis set group =>   2
Atom  13O    basis set group =>   3
Atom  14H    basis set group =>   2
Atom  15H    basis set group =>   2


           ************************************************************
           *        Program running with 8 parallel MPI-processes     *
           *              working on a common directory               *
           ************************************************************
------------------------------------------------------------------------------
                             ORCA STARTUP CALCULATIONS
------------------------------------------------------------------------------
------------------------------------------------------------------------------
                   ___                                                        
                  /   \      - P O W E R E D   B Y -                         
                 /     \                                                     
                 |  |  |   _    _      __       _____    __    __             
                 |  |  |  | |  | |    /  \     |  _  \  |  |  /  |          
                  \  \/   | |  | |   /    \    | | | |  |  | /  /          
                 / \  \   | |__| |  /  /\  \   | |_| |  |  |/  /          
                |  |  |   |  __  | /  /__\  \  |    /   |      \           
                |  |  |   | |  | | |   __   |  |    \   |  |\   \          
                \     /   | |  | | |  |  |  |  | |\  \  |  | \   \       
                 \___/    |_|  |_| |__|  |__|  |_| \__\ |__|  \__/        
                                                                              
                      - O R C A' S   B I G   F R I E N D -                    
                                      &                                       
                       - I N T E G R A L  F E E D E R -                       
                                                                              
 v1 FN, 2020, v2 2021, v3 2022-2024                                           
------------------------------------------------------------------------------


----------------------
SHARK INTEGRAL PACKAGE
----------------------

Number of atoms                             ...     16
Number of basis functions                   ...    304
Number of shells                            ...    160
Maximum angular momentum                    ...      2
Integral batch strategy                     ... SHARK/LIBINT Hybrid
RI-J (if used) integral strategy            ... SPLIT-RIJ (Revised 2003 algorithm where possible)
Printlevel                                  ...      1
Contraction scheme used                     ... PARTIAL GENERAL contraction
Prescreening option                         ... SCHWARTZ
   Thresh                                   ... 2.500e-11
   Tcut                                     ... 2.500e-12
   Tpresel                                  ... 2.500e-12 
Coulomb Range Separation                    ... NOT USED
Exchange Range Separation                   ... Long Range
   Mu parameter                             ... 2.000e-01
   Scaling (regular/separated)              ... 2.220e-01 7.780e-01
Robust (split-)RI terms used:
  metric    (central integrals)             ... YES
  density   (r.h.s.  integrals)             ... YES
  potential (l.h.s.  integrals)             ... YES
Multipole approximations                    ... NOT USED
Finite Nucleus Model                        ... NOT USED
CABS basis                                  ... NOT available
Auxiliary Coulomb fitting basis             ... NOT available
Auxiliary J/K fitting basis                 ... NOT available
Auxiliary Correlation fitting basis         ... NOT available
Auxiliary 'external' fitting basis          ... NOT available

Checking pre-screening integrals            ... done (  0.0 sec) Dimension = 160
Save PGC pre-screening integrals            ... done (  0.0 sec) Dimension = 160
Calculate PGC overlap integrals             ... done (  0.0 sec) Dimension = 112
Calculating pre-screening integrals (ORCA)  ... done (  0.1 sec) Dimension = 112
Shell pair information
Shell pair cut-off parameter TPreSel        ...   2.5e-12
Total number of shell pairs                 ...     12880
Shell pairs after pre-screening             ...     10263
Total number of primitive shell pairs       ...     18576
Primitive shell pairs kept                  ...     13469
          la=0 lb=0:   3700 shell pairs
          la=1 lb=0:   3641 shell pairs
          la=1 lb=1:    785 shell pairs
          la=2 lb=0:   1393 shell pairs
          la=2 lb=1:    613 shell pairs
          la=2 lb=2:    131 shell pairs

Checking whether 4 symmetric matrices of dimension 304 fit in memory
:Max Core in MB      =   8000.00
 MB in use           =     12.48
 MB left             =   7987.52
 MB needed           =      1.41
 Data fit in memory  = YES
Calculating Nuclear repulsion               ... done (  0.0 sec) ENN=    387.608722165145 Eh

Diagonalization of the overlap matrix:
Smallest eigenvalue                        ... 1.770e-05
Time for diagonalization                   ...    0.008 sec
Threshold for overlap eigenvalues          ... 1.000e-07
Number of eigenvalues below threshold      ... 0
Time for construction of square roots      ...    0.004 sec
Total time needed                          ...    0.014 sec

-------------------
DFT GRID GENERATION
-------------------

General Integration Accuracy     IntAcc      ... 4.959
Radial Grid Type                 RadialGrid  ... OptM3 with GC (2021)
Angular Grid (max. ang.)         AngularGrid ... 6 (Lebedev-590)
Angular grid pruning method      GridPruning ... 4 (adaptive)
Weight generation scheme         WeightScheme... mBecke (2022)
Basis function cutoff            BFCut       ... 1.0000e-11
Integration weight cutoff        WCut        ... 1.0000e-14
Partially contracted basis set               ... off
Rotationally invariant grid construction     ... off
Angular grids for H and He will be reduced by one unit
Diffuse basis detected: some atoms will have their outermost
                        angular grid increased by 1.

Total number of grid points                  ...   196699
Total number of batches                      ...     3083
Average number of points per batch           ...       63
Average number of grid points per atom       ...    12294

---------------------
SHARK GRID GENERATION
---------------------

General Integration Accuracy     IntAcc      ... 4.959
Radial Grid Type                 RadialGrid  ... OptM3 with GC (2021)
Angular Grid (max. ang.)         AngularGrid ... 6 (Lebedev-590)
Angular grid pruning method      GridPruning ... 4 (adaptive)
Weight generation scheme         WeightScheme... mBecke (2022)
Basis function cutoff            BFCut       ... 1.0000e-11
Integration weight cutoff        WCut        ... 1.0000e-14
Partially contracted basis set               ... off
Rotationally invariant grid construction     ... off
Angular grids for H and He will be reduced by one unit
Diffuse basis detected: some atoms will have their outermost
                        angular grid increased by 1.
Steep s-basis detected: some atoms will have their radial
                        grid points doubled.

Total number of grid points                  ...   315517
Total number of batches                      ...     4938
Average number of points per batch           ...       63
Average number of grid points per atom       ...    19720
Grids setup in   9.7 sec
Initializing property integral containers    ... done (  0.0 sec)

SHARK setup successfully completed in  10.0 seconds

Maximum memory used throughout the entire STARTUP-calculation: 73.2 MB


           ************************************************************
           *        Program running with 8 parallel MPI-processes     *
           *              working on a common directory               *
           ************************************************************
-------------------------------------------------------------------------------
                                 ORCA GUESS
                   Start orbitals & Density for SCF / CASSCF
-------------------------------------------------------------------------------

------------
SCF SETTINGS
------------
Hamiltonian:
 Density Functional     Method          .... DFT(GTOs)
  Functional kind                       .... Exchange-Correlation
  Functional name                       .... wB97X-D range-separated functional
  Functional family                     .... Hybrid GGA
  Functional refs                              
    [ 0] J.-D. Chai and M. Head-Gordon.,  Phys. Chem. Chem. Phys. 10, 6615-6620 (2008), doi: 10.1039/B810189B
  Fraction of HF Exchange (short range) .... 0.2220
  Fraction of HF Exchange ( int64 range )  .... 1.0000
  Range separation parameter mu         .... 0.2000
  Functional external parameters        .... 18
    Parameter  0 _cx0       =  7.779640e-01 : u^0 coefficient for exchange
    Parameter  1 _cx1       =  6.611600e-01 : u^1 coefficient for exchange
    Parameter  2 _cx2       =  5.745410e-01 : u^2 coefficient for exchange
    Parameter  3 _cx3       = -5.256710e+00 : u^3 coefficient for exchange
    Parameter  4 _cx4       =  1.163860e+01 : u^4 coefficient for exchange
    Parameter  5 _css0      =  1.000000e+00 : u^0 coefficient for same-spin correlation
    Parameter  6 _css1      = -6.905390e+00 : u^1 coefficient for same-spin correlation
    Parameter  7 _css2      =  3.133430e+01 : u^2 coefficient for same-spin correlation
    Parameter  8 _css3      = -5.105330e+01 : u^3 coefficient for same-spin correlation
    Parameter  9 _css4      =  2.644230e+01 : u^4 coefficient for same-spin correlation
    Parameter 10 _cos0      =  1.000000e+00 : u^0 coefficient for opposite-spin correlation
    Parameter 11 _cos1      =  1.794130e+00 : u^1 coefficient for opposite-spin correlation
    Parameter 12 _cos2      = -1.204770e+01 : u^2 coefficient for opposite-spin correlation
    Parameter 13 _cos3      =  1.408470e+01 : u^3 coefficient for opposite-spin correlation
    Parameter 14 _cos4      = -8.508090e+00 : u^4 coefficient for opposite-spin correlation
    Parameter 15 _alpha     =  1.000000e+00 : fraction of HF exchange
    Parameter 16 _beta      = -7.779640e-01 : fraction of short-range exchange
    Parameter 17 _omega     =  2.000000e-01 : range-separation constant
 Long-range corrected/Screened/Range-Separated Hybrid DFT is turned on
   Amount of maximum screened exact exchange              ....  0.777964
   Range separation parameter mu (erf(mu*r12)/r12)        ....  0.200000


General Settings:
 Integral files         IntName         .... s0_freq_2_wat_non
 Hartree-Fock type      HFTyp           .... RHF
 Total Charge           Charge          ....    0
 Multiplicity           Mult            ....    1
 Number of Electrons    NEL             ....   66
 Basis Dimension        Dim             ....  256
 Nuclear Repulsion      ENuc            ....    387.6087221651 Eh

Convergence Acceleration:
 AO-DIIS                CNVDIIS         .... on
   Start iteration      DIISMaxIt       ....    12
   Startup error        DIISStart       ....  0.200000
   # of expansion vecs  DIISMaxEq       ....     5
   Bias factor          DIISBfac        ....   1.050
   Max. coefficient     DIISMaxC        ....  10.000
 MO-DIIS                CNVKDIIS        .... off
 Trust-Rad. Augm. Hess. CNVTRAH         .... auto
   Auto Start mean grad. ratio tolernc. ....  1.125000
   Auto Start start iteration           ....    50
   Auto Start num. interpolation iter.  ....    10
   Max. Number of Micro iterations      ....    24
   Max. Number of Macro iterations      .... Maxiter - #DIIS iter
   Number of Davidson start vectors     ....     2
   Converg. threshold    (grad. norm)   ....   1.000e-05
   Grad. Scal. Fac. for Micro threshold ....   0.100
   Minimum threshold for Micro iter.    ....   1.000e-02
   NR start threshold (gradient norm)   ....   1.000e-04
   Initial trust radius                 ....   0.400
   Minimum AH scaling param. (alpha)    ....   1.000
   Maximum AH scaling param. (alpha)    .... 1000.000
   Quad. conv. algorithm                .... NR
   White noise on init. David. guess    .... on
   Maximum white noise                  ....   0.010
   Pseudo random numbers                .... off
   Inactive MOs                         .... canonical
   Orbital update algorithm             .... Taylor
   Preconditioner                       .... Diag
   Full preconditioner red. dimension   ....   250
 SOSCF                 CNVSOSCF           .... on
   Start iteration     SOSCFMaxIt         ....   150
   Startup grad/error  SOSCFStart         ....  0.003300
   Hessian update      SOSCFHessUp        .... L-BFGS
   Autom. constraints  SOSCFAutoConstrain .... off
 Level Shifting         CNVShift        .... on
   Level shift para.    LevelShift      ....    0.2500
   Turn off err/grad.   ShiftErr        ....    0.0010
 Zerner damping         CNVZerner       .... off
 Static damping         CNVDamp         .... on
   Fraction old density DampFac         ....    0.7000
   Max. Damping (<1)    DampMax         ....    0.9800
   Min. Damping (>=0)   DampMin         ....    0.0000
   Turn off err/grad.   DampErr         ....    0.1000

SCF Procedure:
 Maximum # iterations   MaxIter         ....   125
 SCF integral mode      SCFMode         .... Direct
   Integral package                     .... SHARK and LIBINT hybrid scheme
 Reset frequency        DirectResetFreq ....    20
 Integral Threshold     Thresh          ....  2.500e-11 Eh
 Primitive CutOff       TCut            ....  2.500e-12 Eh

Convergence Tolerance:
 Convergence Check Mode ConvCheckMode   .... Total+1el-Energy
 Convergence forced     ConvForced      .... 0
 Energy Change          TolE            ....  1.000e-08 Eh
 1-El. energy change                    ....  1.000e-05 Eh
 Orbital Gradient       TolG            ....  1.000e-05
 Orbital Rotation angle TolX            ....  1.000e-05
 DIIS Error             TolErr          ....  5.000e-07

------------------------------
INITIAL GUESS: MODEL POTENTIAL
------------------------------
Loading Hartree-Fock densities                     ... done
Calculating cut-offs                               ... done
Initializing the effective Hamiltonian             ... done
Setting up the integral package (SHARK)            ... done
Starting the Coulomb interaction                   ... done (   0.1 sec)
Making the grid                                    ... done (   0.2 sec)
Mapping shells                                     ... done
Starting the XC term evaluation                    ... done (   0.1 sec)
  promolecular density results
     # of electrons  =     65.995031300
     EX+EC           =    -42.403811982
Transforming the Hamiltonian                       ... done (   0.0 sec)
Diagonalizing the Hamiltonian                      ... done (   0.0 sec)
Back transforming the eigenvectors                 ... done (   0.0 sec)
Now organizing SCF variables                       ... done
                      ------------------
                      INITIAL GUESS DONE (   0.4 sec)
                      ------------------
             **** ENERGY FILE WAS UPDATED (s0_freq_2_wat_non.en.tmp) ****
Finished Guess after   0.8 sec
Maximum memory used throughout the entire GUESS-calculation: 16.1 MB


           ************************************************************
           *        Program running with 8 parallel MPI-processes     *
           *              working on a common directory               *
           ************************************************************

-------------------------------------------------------------------------------------------
                                      ORCA LEAN-SCF
                              memory conserving SCF solver
-------------------------------------------------------------------------------------------

----------------------------------------D-I-I-S--------------------------------------------
Iteration    Energy (Eh)           Delta-E    RMSDP     MaxDP     DIISErr   Damp  Time(sec)
-------------------------------------------------------------------------------------------
               ***  Starting incremental Fock matrix formation  ***
    1    -495.0544122014410959     0.00e+00  7.97e-03  1.66e-01  9.85e-02  0.700   8.6
    2    -495.0981249655454803    -4.37e-02  6.05e-03  1.22e-01  6.16e-02  0.700   8.1
                               ***Turning on AO-DIIS***
    3    -495.1220788699306468    -2.40e-02  3.36e-03  4.48e-02  4.14e-02  0.700   8.0
    4    -495.1368858739120924    -1.48e-02  7.80e-03  1.05e-01  2.90e-02  0.000   7.9
                              *** Initializing SOSCF ***
---------------------------------------S-O-S-C-F--------------------------------------
Iteration    Energy (Eh)           Delta-E    RMSDP     MaxDP     MaxGrad    Time(sec)
--------------------------------------------------------------------------------------
    5    -495.1700140486220789    -3.31e-02  9.54e-04  1.72e-02  2.42e-03     8.1
               *** Restarting incremental Fock matrix formation ***
    6    -495.1701652903070681    -1.51e-04  5.24e-04  1.23e-02  8.56e-04     8.6
    7    -495.1702018464743560    -3.66e-05  3.96e-04  9.02e-03  7.21e-04     7.3
    8    -495.1702128966168175    -1.11e-05  1.65e-04  3.16e-03  3.12e-04     7.2
    9    -495.1702166298100565    -3.73e-06  5.75e-05  1.22e-03  1.13e-04     6.9
   10    -495.1702169806734446    -3.51e-07  2.61e-05  5.43e-04  7.94e-05     6.5
   11    -495.1702171611772201    -1.81e-07  1.69e-05  2.58e-04  1.83e-05     6.2
   12    -495.1702171701931547    -9.02e-09  1.08e-05  1.03e-04  1.35e-05     5.8
                 **** Energy Check signals convergence ****

               *****************************************************
               *                     SUCCESS                       *
               *           SCF CONVERGED AFTER  12 CYCLES          *
               *****************************************************

             **** ENERGY FILE WAS UPDATED (s0_freq_2_wat_non.en.tmp) ****

----------------
TOTAL SCF ENERGY
----------------

Total Energy       :       -495.17021717428747 Eh          -13474.26663 eV

Components:
Nuclear Repulsion  :        387.60872216514474 Eh           10547.36955 eV
Electronic Energy  :       -882.77893933943221 Eh          -24021.63618 eV
One Electron Energy:      -1446.17901803665222 Eh          -39352.53172 eV
Two Electron Energy:        563.40007869722001 Eh           15330.89555 eV

Virial components:
Potential Energy   :       -987.11458596439809 Eh          -26860.75346 eV
Kinetic Energy     :        491.94436879011062 Eh           13386.48683 eV
Virial Ratio       :          2.00655734385599

DFT components:
N(Alpha)           :       33.000040478603 electrons
N(Beta)            :       33.000040478603 electrons
N(Total)           :       66.000080957206 electrons
E(XC)              :      -43.153156669203 Eh       

---------------
SCF CONVERGENCE
---------------

  Last Energy change         ...    9.0159e-09  Tolerance :   1.0000e-08
  Last MAX-Density change    ...    1.0271e-04  Tolerance :   1.0000e-07
  Last RMS-Density change    ...    1.0849e-05  Tolerance :   5.0000e-09
  Last DIIS Error            ...    2.4233e-03  Tolerance :   5.0000e-07
  Last Orbital Gradient      ...    1.3452e-05  Tolerance :   1.0000e-05
  Last Orbital Rotation      ...    1.6417e-05  Tolerance :   1.0000e-05


----------------
ORBITAL ENERGIES
----------------

  NO   OCC          E(Eh)            E(eV) 
   0   2.0000     -19.370731      -527.1044 
   1   2.0000     -19.341327      -526.3043 
   2   2.0000     -19.340490      -526.2815 
   3   2.0000     -19.282263      -524.6971 
   4   2.0000     -19.235648      -523.4286 
   5   2.0000     -10.508424      -285.9488 
   6   2.0000     -10.465725      -284.7869 
   7   2.0000     -10.344557      -281.4897 
   8   2.0000      -1.264903       -34.4198 
   9   2.0000      -1.192440       -32.4479 
  10   2.0000      -1.170843       -31.8602 
  11   2.0000      -1.120169       -30.4813 
  12   2.0000      -1.076275       -29.2869 
  13   2.0000      -0.919467       -25.0200 
  14   2.0000      -0.843823       -22.9616 
  15   2.0000      -0.712161       -19.3789 
  16   2.0000      -0.658052       -17.9065 
  17   2.0000      -0.642993       -17.4967 
  18   2.0000      -0.626680       -17.0528 
  19   2.0000      -0.611423       -16.6377 
  20   2.0000      -0.574262       -15.6265 
  21   2.0000      -0.567305       -15.4372 
  22   2.0000      -0.552629       -15.0378 
  23   2.0000      -0.546846       -14.8804 
  24   2.0000      -0.521647       -14.1947 
  25   2.0000      -0.494449       -13.4546 
  26   2.0000      -0.485282       -13.2052 
  27   2.0000      -0.465225       -12.6594 
  28   2.0000      -0.462288       -12.5795 
  29   2.0000      -0.434655       -11.8276 
  30   2.0000      -0.416032       -11.3208 
  31   2.0000      -0.399840       -10.8802 
  32   2.0000      -0.366553        -9.9744 
  33   0.0000      -0.092512        -2.5174 
  34   0.0000       0.023836         0.6486 
  35   0.0000       0.035992         0.9794 
  36   0.0000       0.049526         1.3477 
  37   0.0000       0.052680         1.4335 
  38   0.0000       0.060615         1.6494 
  39   0.0000       0.073748         2.0068 
  40   0.0000       0.079417         2.1611 
  41   0.0000       0.086404         2.3512 
  42   0.0000       0.089870         2.4455 
  43   0.0000       0.103398         2.8136 
*Only the first 10 virtual orbitals were printed.

                    ********************************
                    * MULLIKEN POPULATION ANALYSIS *
                    ********************************

-----------------------
MULLIKEN ATOMIC CHARGES
-----------------------
   0 C :    0.078921
   1 C :    1.119575
   2 C :    0.547989
   3 H :   -0.003451
   4 H :   -0.008244
   5 H :   -0.260460
   6 O :   -0.626978
   7 O :   -0.633347
   8 O :   -0.514469
   9 H :    0.196409
  10 O :   -0.283189
  11 H :    0.192225
  12 H :    0.122616
  13 O :   -0.312709
  14 H :    0.264465
  15 H :    0.120646
Sum of atomic charges:    0.0000000

--------------------------------
MULLIKEN REDUCED ORBITAL CHARGES
--------------------------------
  0 C s       :     3.278766  s :     3.278766
      pz      :     0.718731  p :     2.383689
      px      :     0.811132
      py      :     0.853826
      dz2     :     0.028016  d :     0.258623
      dxz     :     0.026967
      dyz     :     0.039333
      dx2y2   :     0.082398
      dxy     :     0.081909

  1 C s       :     2.962353  s :     2.962353
      pz      :     0.674213  p :     1.715213
      px      :     0.562525
      py      :     0.478474
      dz2     :     0.001151  d :     0.202860
      dxz     :     0.047407
      dyz     :     0.024746
      dx2y2   :     0.118346
      dxy     :     0.011209

  2 C s       :     3.008570  s :     3.008570
      pz      :     0.886180  p :     2.492170
      px      :     0.649284
      py      :     0.956706
      dz2     :    -0.012733  d :    -0.048729
      dxz     :     0.001268
      dyz     :    -0.016980
      dx2y2   :     0.003348
      dxy     :    -0.023631

  3 H s       :     1.009167  s :     1.009167
      pz      :    -0.001126  p :    -0.005716
      px      :    -0.000745
      py      :    -0.003844

  4 H s       :     1.014804  s :     1.014804
      pz      :     0.012147  p :    -0.006560
      px      :     0.002026
      py      :    -0.020733

  5 H s       :     1.244293  s :     1.244293
      pz      :    -0.008014  p :     0.016168
      px      :     0.000174
      py      :     0.024008

  6 O s       :     4.104443  s :     4.104443
      pz      :     1.376084  p :     4.486595
      px      :     1.371298
      py      :     1.739213
      dz2     :     0.001556  d :     0.035939
      dxz     :     0.013720
      dyz     :     0.003430
      dx2y2   :     0.008245
      dxy     :     0.008988

  7 O s       :     4.064674  s :     4.064674
      pz      :     1.465225  p :     4.531312
      px      :     1.357664
      py      :     1.708423
      dz2     :     0.002537  d :     0.037361
      dxz     :     0.014485
      dyz     :     0.002346
      dx2y2   :     0.007897
      dxy     :     0.010096

  8 O s       :     4.000917  s :     4.000917
      pz      :     1.688939  p :     4.496205
      px      :     1.537015
      py      :     1.270250
      dz2     :     0.002100  d :     0.017347
      dxz     :     0.009834
      dyz     :     0.000486
      dx2y2   :     0.000372
      dxy     :     0.004555

  9 H s       :     0.710855  s :     0.710855
      pz      :     0.026053  p :     0.092735
      px      :     0.023876
      py      :     0.042806

 10 O s       :     3.795873  s :     3.795873
      pz      :     1.821798  p :     4.495398
      px      :     1.457440
      py      :     1.216160
      dz2     :    -0.000997  d :    -0.008082
      dxz     :     0.001404
      dyz     :    -0.000901
      dx2y2   :    -0.001871
      dxy     :    -0.005716

 11 H s       :     0.745800  s :     0.745800
      pz      :     0.040724  p :     0.061975
      px      :     0.010342
      py      :     0.010909

 12 H s       :     0.777858  s :     0.777858
      pz      :     0.044201  p :     0.099526
      px      :     0.034633
      py      :     0.020693

 13 O s       :     3.780000  s :     3.780000
      pz      :     1.221433  p :     4.539324
      px      :     1.838386
      py      :     1.479505
      dz2     :    -0.007602  d :    -0.006614
      dxz     :    -0.000555
      dyz     :    -0.000966
      dx2y2   :     0.000117
      dxy     :     0.002392

 14 H s       :     0.667198  s :     0.667198
      pz      :     0.025524  p :     0.068337
      px      :     0.024958
      py      :     0.017856

 15 H s       :     0.767506  s :     0.767506
      pz      :     0.037268  p :     0.111848
      px      :     0.042637
      py      :     0.031943



                     *******************************
                     * LOEWDIN POPULATION ANALYSIS *
                     *******************************

----------------------
LOEWDIN ATOMIC CHARGES
----------------------
   0 C :   -0.234910
   1 C :   -0.267232
   2 C :    0.199282
   3 H :    0.014973
   4 H :    0.014894
   5 H :   -0.014768
   6 O :    0.176832
   7 O :    0.145999
   8 O :    0.296489
   9 H :   -0.076718
  10 O :    0.195787
  11 H :   -0.217235
  12 H :   -0.144551
  13 O :    0.224957
  14 H :   -0.215003
  15 H :   -0.098797

-------------------------------
LOEWDIN REDUCED ORBITAL CHARGES
-------------------------------
  0 C s       :     2.602128  s :     2.602128
      pz      :     0.637593  p :     2.481100
      px      :     0.930898
      py      :     0.912609
      dz2     :     0.111653  d :     1.151681
      dxz     :     0.185969
      dyz     :     0.121707
      dx2y2   :     0.364276
      dxy     :     0.368076

  1 C s       :     2.576013  s :     2.576013
      pz      :     0.646017  p :     2.403151
      px      :     0.872197
      py      :     0.884937
      dz2     :     0.123238  d :     1.288068
      dxz     :     0.248871
      dyz     :     0.123297
      dx2y2   :     0.396945
      dxy     :     0.395716

  2 C s       :     2.606265  s :     2.606265
      pz      :     0.942024  p :     2.797750
      px      :     0.929812
      py      :     0.925914
      dz2     :     0.077078  d :     0.396703
      dxz     :     0.044494
      dyz     :     0.071412
      dx2y2   :     0.098095
      dxy     :     0.105624

  3 H s       :     0.713360  s :     0.713360
      pz      :     0.096501  p :     0.271667
      px      :     0.066213
      py      :     0.108953

  4 H s       :     0.713334  s :     0.713334
      pz      :     0.129278  p :     0.271771
      px      :     0.067316
      py      :     0.075177

  5 H s       :     0.716861  s :     0.716861
      pz      :     0.075909  p :     0.297906
      px      :     0.116206
      py      :     0.105792

  6 O s       :     3.368618  s :     3.368618
      pz      :     1.247104  p :     4.273851
      px      :     1.433281
      py      :     1.593466
      dz2     :     0.021332  d :     0.180699
      dxz     :     0.029643
      dyz     :     0.006058
      dx2y2   :     0.062072
      dxy     :     0.061595

  7 O s       :     3.347139  s :     3.347139
      pz      :     1.337151  p :     4.329215
      px      :     1.449846
      py      :     1.542219
      dz2     :     0.020285  d :     0.177646
      dxz     :     0.029688
      dyz     :     0.011925
      dx2y2   :     0.059280
      dxy     :     0.056467

  8 O s       :     3.225289  s :     3.225289
      pz      :     1.518962  p :     4.305181
      px      :     1.484244
      py      :     1.301975
      dz2     :     0.020376  d :     0.173042
      dxz     :     0.025383
      dyz     :     0.017911
      dx2y2   :     0.051680
      dxy     :     0.057691

  9 H s       :     0.585258  s :     0.585258
      pz      :     0.119725  p :     0.491459
      px      :     0.152688
      py      :     0.219047

 10 O s       :     3.263045  s :     3.263045
      pz      :     1.663832  p :     4.487841
      px      :     1.493084
      py      :     1.330925
      dz2     :     0.007308  d :     0.053328
      dxz     :     0.005090
      dyz     :     0.003393
      dx2y2   :     0.011870
      dxy     :     0.025667

 11 H s       :     0.606384  s :     0.606384
      pz      :     0.160654  p :     0.610852
      px      :     0.292204
      py      :     0.157994

 12 H s       :     0.635659  s :     0.635659
      pz      :     0.148034  p :     0.508892
      px      :     0.169406
      py      :     0.191451

 13 O s       :     3.253787  s :     3.253787
      pz      :     1.324431  p :     4.465928
      px      :     1.648985
      py      :     1.492512
      dz2     :     0.025377  d :     0.055327
      dxz     :     0.003171
      dyz     :     0.011477
      dx2y2   :     0.009975
      dxy     :     0.005328

 14 H s       :     0.585271  s :     0.585271
      pz      :     0.141563  p :     0.629732
      px      :     0.153977
      py      :     0.334192

 15 H s       :     0.633761  s :     0.633761
      pz      :     0.207272  p :     0.465035
      px      :     0.138716
      py      :     0.119047



                      *****************************
                      * MAYER POPULATION ANALYSIS *
                      *****************************

  NA   - Mulliken gross atomic population
  ZA   - Total nuclear charge
  QA   - Mulliken gross atomic charge
  VA   - Mayer's total valence
  BVA  - Mayer's bonded valence
  FA   - Mayer's free valence

  ATOM       NA         ZA         QA         VA         BVA        FA
  0 C      5.9211     6.0000     0.0789     4.0768     4.0768     0.0000
  1 C      4.8804     6.0000     1.1196     2.2079     2.2079     0.0000
  2 C      5.4520     6.0000     0.5480     3.8184     3.8184     0.0000
  3 H      1.0035     1.0000    -0.0035     0.8818     0.8818    -0.0000
  4 H      1.0082     1.0000    -0.0082     0.8781     0.8781    -0.0000
  5 H      1.2605     1.0000    -0.2605     0.8668     0.8668     0.0000
  6 O      8.6270     8.0000    -0.6270     1.6149     1.6149     0.0000
  7 O      8.6333     8.0000    -0.6333     1.7700     1.7700     0.0000
  8 O      8.5145     8.0000    -0.5145     1.8449     1.8449    -0.0000
  9 H      0.8036     1.0000     0.1964     1.0580     1.0580    -0.0000
 10 O      8.2832     8.0000    -0.2832     1.9302     1.9302    -0.0000
 11 H      0.8078     1.0000     0.1922     0.9360     0.9360     0.0000
 12 H      0.8774     1.0000     0.1226     1.0084     1.0084    -0.0000
 13 O      8.3127     8.0000    -0.3127     2.0035     2.0035     0.0000
 14 H      0.7355     1.0000     0.2645     0.8966     0.8966     0.0000
 15 H      0.8794     1.0000     0.1206     1.0606     1.0606    -0.0000

  Mayer bond orders larger than 0.100000
B(  0-C ,  1-C ) :   0.4991 B(  0-C ,  2-C ) :   1.3757 B(  0-C ,  3-H ) :   0.1492 
B(  0-C ,  4-H ) :   0.1405 B(  0-C ,  5-H ) :   0.2755 B(  0-C ,  6-O ) :   1.5455 
B(  0-C ,  8-O ) :   0.1255 B(  1-C ,  2-C ) :  -0.1222 B(  1-C ,  5-H ) :  -0.1874 
B(  1-C ,  7-O ) :   1.5176 B(  1-C ,  8-O ) :   0.6124 B(  2-C ,  3-H ) :   0.8545 
B(  2-C ,  4-H ) :   0.8607 B(  2-C ,  5-H ) :   0.8447 B(  7-O ,  8-O ) :   0.1337 
B(  8-O ,  9-H ) :   0.9307 B(  9-H , 13-O ) :   0.1222 B( 10-O , 11-H ) :   0.9137 
B( 10-O , 12-H ) :   1.0272 B( 13-O , 14-H ) :   0.8144 B( 13-O , 15-H ) :   1.0668 


-------
TIMINGS
-------

Total SCF time: 0 days 0 hours 1 min 35 sec 

Total time                  ....      95.511 sec
Sum of individual times     ....      89.721 sec  ( 93.9%)

SCF preparation             ....       0.410 sec  (  0.4%)
Fock matrix formation       ....      88.667 sec  ( 92.8%)
  Startup                   ....       0.028 sec  (  0.0% of F)
  Coulomb+Exchange Fock     ....      84.924 sec  ( 95.8% of F)
  XC integration            ....       9.167 sec  ( 10.3% of F)
    Basis function eval.    ....       3.162 sec  ( 34.5% of XC)
    Density eval.           ....       1.745 sec  ( 19.0% of XC)
    XC-Functional eval.     ....       0.812 sec  (  8.9% of XC)
    XC-Potential eval.      ....       2.854 sec  ( 31.1% of XC)
Diagonalization             ....       0.000 sec  (  0.0%)
Density matrix formation    ....       0.082 sec  (  0.1%)
Total Energy calculation    ....       0.029 sec  (  0.0%)
Population analysis         ....       0.037 sec  (  0.0%)
Orbital Transformation      ....       0.080 sec  (  0.1%)
Orbital Orthonormalization  ....       0.000 sec  (  0.0%)
DIIS solution               ....       0.173 sec  (  0.2%)
SOSCF solution              ....       0.242 sec  (  0.3%)
Finished LeanSCF after  95.5 sec

Maximum memory used throughout the entire LEANSCF-calculation: 18.7 MB


           ************************************************************
           *        Program running with 8 parallel MPI-processes     *
           *              working on a common directory               *
           ************************************************************

------------------------------------------------------------------------------
                         ORCA PROPERTY INTEGRAL CALCULATIONS
------------------------------------------------------------------------------

GBWName                                   ... s0_freq_2_wat_non.gbw
Number of atoms                           ...     16
Number of basis functions                 ...    304
Max core memory                           ...   8000 MB

Dipole integrals                          ... YES
Quadrupole integrals                      ...  NO
Linear momentum integrals                 ...  NO
Angular momentum integrals                ...  NO
Higher moments length integrals           ...  NO
Higher moments velocity integrals         ...  NO
Kinetic energy integrals                  ...  NO
GIAO right hand sides                     ...  NO
GIAO dipole derivative integrals          ...  NO
SOC integrals                             ...  NO
EPR diamagnetic integrals (GIAO)          ...  NO
EPR gauge integrals                       ...  NO
Field gradient integrals                  ...  NO (   0 nuclei)
Spin-dipole/Fermi contact integrals       ...  NO (   0 nuclei)
Contact density integrals                 ...  NO (   0 nuclei)
Nucleus-orbit integrals                   ...  NO (   0 nuclei)
Geometric perturbations                   ... YES (  16 nuclei)

Choice of electric origin   ... Center of mass
Position of electric origin ... ( -1.9014,  3.2590,  0.2045) 
Choice of magnetic origin   ... GIAO
Position of magnetic origin ... (  0.0000,  0.0000,  0.0000) 

Calculating integrals                     ... Electric Dipole (Length)     done (  0.0 sec)
Calculating integrals                     ... Geometrical perturbation right hand sides

-----------------------
GEOMETRIC PERTURBATIONS (16 nuclei)
-----------------------

MaxCore                            ...   8000 MB
Number of batches                  ...      1

BATCH   0: Atoms    0 -   15 ( 48 perturbations)
   => H(core) and overlap derivative integrals     ... done (     0.3 sec)
   => Making and storing internal U-coefficients   ... done (     0.0 sec)
   => Exact two electron derivative integrals      ... done (    54.7 sec)
   => Exact two-electron response operators        ... done (   161.1 sec)
   => XC derivative integrals                      ... done (    69.3 sec)
   => XC response operators                        ... done (    18.7 sec)
   => Completing and storing right hand sides      ... done (     0.0 sec)
   => Total time for right hand sides = 250.1 sec

  geometrical perturbations done (250.1 sec)

Property integrals calculated in 250.1 sec

Maximum memory used throughout the entire PROPINT-calculation: 92.2 MB

-------------------------   --------------------
FINAL SINGLE POINT ENERGY      -495.170217174287
-------------------------   --------------------



           ************************************************************
           *        Program running with 8 parallel MPI-processes     *
           *              working on a common directory               *
           ************************************************************
------------------------------------------------------------------------------
                         ORCA SCF GRADIENT CALCULATION
------------------------------------------------------------------------------

Nuc. rep. gradient        (SHARK) ... done (  0.0 sec)
HCore & Overlap gradient  (SHARK) ... done (  0.1 sec)
Two-electron gradient     (SHARK) ... done ( 27.4 sec)
XC gradient                       ... done (  3.7 sec)

------------------
CARTESIAN GRADIENT
------------------

   1   C   :    0.061331504   -0.103346873    0.027896748
   2   C   :   -0.024670566    0.123146111   -0.037189611
   3   C   :   -0.001874657    0.004213591   -0.000974429
   4   H   :    0.002469941    0.002931089    0.000769372
   5   H   :    0.002084580    0.001762243   -0.002677652
   6   H   :    0.001318956   -0.000930884    0.000159322
   7   O   :   -0.075242382    0.039176824   -0.005985862
   8   O   :    0.054573320   -0.049807660    0.012486344
   9   O   :   -0.026203060   -0.036549984    0.013962735
  10   H   :   -0.002327658    0.010841841   -0.003550791
  11   O   :   -0.014159520   -0.004972958    0.003287311
  12   H   :    0.017347183    0.006221386   -0.004098303
  13   H   :    0.004707048    0.001766389   -0.001071372
  14   O   :    0.003393889   -0.017905355    0.007926949
  15   H   :   -0.001754608    0.021013384   -0.008754906
  16   H   :   -0.000993970    0.002440857   -0.002185854

Difference to translation invariance:
           :   -0.0000000000    0.0000000000    0.0000000000

Difference to rotation invariance:
           :    0.0000481389    0.0000546206    0.0000231176

Norm of the Cartesian gradient     ...    0.2217626900
RMS gradient                       ...    0.0320086872
MAX gradient                       ...    0.1231461108

-------
TIMINGS
-------

Total SCF gradient time     ....       31.218 sec

Densities                   ....       0.001 sec  (  0.0%)
One electron gradient       ....       0.096 sec  (  0.3%)
Two electron gradient       ....      27.424 sec  ( 87.8%)
XC gradient                 ....       3.696 sec  ( 11.8%)

Maximum memory used throughout the entire SCFGRAD-calculation: 38.4 MB


           ************************************************************
           *        Program running with 8 parallel MPI-processes     *
           *              working on a common directory               *
           ************************************************************
------------------------------------------------------------------------------
                            ORCA SCF RESPONSE CALCULATION
------------------------------------------------------------------------------

GBWName                                 ... s0_freq_2_wat_non.gbw
Number of atoms                         ...     16
Number of basis functions               ...    304
Max core memory                         ...   8000 MB

Electric field perturbation             ...  NO
Quadrupolar field perturbation          ...  NO
Magnetic field perturbation (no GIAO)   ...  NO
Magnetic field perturbation (with GIAO) ...  NO
Linear momentum (velocity) perturbation ...  NO
Spin-orbit coupling perturbation        ...  NO
Choice of electric origin               ... Center of mass
Position of electric origin             ...    -1.901408     3.259008     0.204545
Choice of magnetic origin               ... GIAO
Position of magnetic origin             ...     0.000000     0.000000     0.000000
Nuclear geometric perturbations         ... YES (  48 perturbations)
Nucleus-orbit perturbations             ...  NO (   0 perturbations)
Spin-dipole/Fermi contact perturbations ...  NO (   0 perturbations)

Total number of real perturbations      ...     48
Total number of imaginary perturbations ...      0
Total number of triplet perturbations   ...      0
Total number of SOC perturbations       ...      0

Using XC Grid                  ... (s0_freq_2_wat_non.grid_cpscf.tmp) 
Recalculating density on grid  ... (s0_freq_2_wat_non.grho_cpscf0.tmp) done
Calculating the xc-kernel      ... (s0_freq_2_wat_non.fxc_cpscf0.tmp) done

                                **********************
                                * REAL PERTURBATIONS *
                                **********************



-------------------
SHARK CP-SCF DRIVER
-------------------

Dimension of the orbital basis          ...    256
Dimension of the CPSCF-problem          ...   7359
Number of operators                     ...      1
Max. number of iterations               ...    128
Convergence Tolerance                   ... 1.0e-04
Number of perturbations                 ...     48
Perturbation type                       ... REAL

----------------------------
POPLE LINEAR EQUATION SOLVER
----------------------------

  ITERATION   0:   ||err||_max =   3.6307e-01 ( 232.3 sec   0/ 48 done)
  ITERATION   1:   ||err||_max =   8.1988e-02 ( 248.8 sec   0/ 48 done)
  ITERATION   2:   ||err||_max =   3.9919e-02 ( 250.6 sec   0/ 48 done)
  ITERATION   3:   ||err||_max =   2.2563e-02 ( 248.1 sec   0/ 48 done)
  ITERATION   4:   ||err||_max =   1.0129e-02 ( 238.9 sec   0/ 48 done)
  ITERATION   5:   ||err||_max =   3.6947e-03 ( 244.2 sec   0/ 48 done)
  ITERATION   6:   ||err||_max =   1.7221e-03 ( 250.5 sec   6/ 48 done)
  ITERATION   7:   ||err||_max =   7.1989e-04 ( 207.8 sec  18/ 48 done)
  ITERATION   8:   ||err||_max =   2.5541e-04 ( 132.5 sec  37/ 48 done)
  ITERATION   9:   ||err||_max =   1.2157e-04 (  45.2 sec  47/ 48 done)
  ITERATION  10:   ||err||_max =   6.5862e-05 (  11.3 sec  48/ 48 done)

CP-SCF equations solved in 2110.4 sec
Response densities calculated in   0.1 sec

Maximum memory used throughout the entire SCFRESP-calculation: 112.6 MB


           ************************************************************
           *        Program running with 8 parallel MPI-processes     *
           *              working on a common directory               *
           ************************************************************

------------------------------------------------------------------------------
                              ORCA PROPERTY CALCULATIONS
------------------------------------------------------------------------------

GBWName                                 ... s0_freq_2_wat_non.gbw
Number of atoms                         ...     16
Number of basis functions               ...    304
Max core memory                         ...   8000 MB

Electric properties:
Dipole moment                           ... YES
Quadrupole moment                       ...  NO
Static polarizability (Dipole/Dipole)   ...  NO
Static polarizability (Dipole/Quad.)    ...  NO
Static polarizability (Quad./Quad.)     ...  NO
Static polarizability (Velocity)        ...  NO
Static hyperpolarizability              ...  NO

Atomic electric properties:
Dipole moment                           ...  NO
Quadrupole moment                       ...  NO
Static polarizability                   ...  NO

Choice of electric origin               ... Center of mass
Position of electric origin             ...    -1.901408     3.259008     0.204545

General magnetic properties:
Magnetizability                         ...  NO

EPR properties:
g-Tensor (aka g-matrix)                 ...  NO
Zero-Field splitting spin-orbit         ...  NO
Zero-field splitting spin-spin          ...  NO
Hyperfine couplings                     ...  NO (   0 nuclei)
Quadrupole couplings                    ...  NO (   0 nuclei)
Contact density                         ...  NO (   0 nuclei)

NMR properties:
Chemical shifts                         ...  NO (   0 nuclei)
Spin-rotation constants                 ...  NO (   0 nuclei)
Spin-spin couplings                     ...  NO (   0 nuclei,    0 pairs)

Choice of magnetic origin               ... GIAO
Position of magnetic origin             ...     0.000000     0.000000     0.000000

Properties with geometric perturbations:
SCF Hessian                             ... YES
IR spectrum                             ... YES
VCD spectrum                            ...  NO
X-ray spectroscopy properties:
SCF XES/XAS/RIXS spectra                ...  NO

SCF SOC stabilization energy            ...  NO
Diagonal Born-Oppenheimer correction    ...  NO

-------------
DIPOLE MOMENT
-------------

Method             : SCF
Type of density    : Electron Density
Multiplicity       :   1
Irrep              :   0
Energy             :  -495.1702171742874725 Eh
Basis              : AO
                                X                 Y                 Z
Electronic contribution:     -0.475752574      -0.053106139      -0.461697369
Nuclear contribution   :      2.421111707       0.608831046       0.576228659
                        -----------------------------------------
Total Dipole Moment    :      1.945359132       0.555724906       0.114531290
                        -----------------------------------------
Magnitude (a.u.)       :      2.026417958
Magnitude (Debye)      :      5.150745114



--------------------
Rotational spectrum 
--------------------
 
Rotational constants in cm-1:             0.063824             0.038928             0.024382 
Rotational constants in MHz :          1913.385516          1167.038972           730.949232 

Dipole components along the rotational axes: 
x,y,z [a.u.] :    -0.828882     1.786622     0.476767 
x,y,z [Debye]:    -2.106850     4.541232     1.211846 

 

Dipole moment calculation done in   0.1 sec 

-----------
SCF HESSIAN
-----------

Occupied/Occupied contributions to the Hessian:
   => Occupied/Occupied contributions              ... done (  0.2 sec)
Perturbed density contributions to the Hessian:
   => Perturbed density contributions              ... done (  0.0 sec)
Explicit contributions to the Hessian:
   => Nuclear repulsion Hessian                    ... done (  0.0 sec)
   => HCore and overlap Hessian                    ... done (  2.7 sec)
   => Exact two electron integral Hessian          ... done (253.4 sec)
   => XC-Hessian                                   ... done ( 30.6 sec)
   => Explicit contributions done
Dipole derivatives                                 ... done (  0.0 sec)
Mass weighting the Hessian           ... done
Calculating normal modes             ... done
Scaling frequencies                  ... done

-----------------------
VIBRATIONAL FREQUENCIES
-----------------------

Scaling factor for frequencies =  1.000000000  (already applied!)

     0:       0.00 cm**-1
     1:       0.00 cm**-1
     2:       0.00 cm**-1
     3:       0.00 cm**-1
     4:       0.00 cm**-1
     5:       0.00 cm**-1
     6:     -48.68 cm**-1  ***imaginary mode***
     7:      56.91 cm**-1
     8:      85.07 cm**-1
     9:     121.36 cm**-1
    10:     132.83 cm**-1
    11:     149.04 cm**-1
    12:     189.08 cm**-1
    13:     211.29 cm**-1
    14:     228.05 cm**-1
    15:     269.99 cm**-1
    16:     360.42 cm**-1
    17:     407.27 cm**-1
    18:     444.89 cm**-1
    19:     451.93 cm**-1
    20:     527.97 cm**-1
    21:     563.81 cm**-1
    22:     644.40 cm**-1
    23:     692.38 cm**-1
    24:     753.90 cm**-1
    25:     775.93 cm**-1
    26:     793.69 cm**-1
    27:     954.32 cm**-1
    28:    1004.71 cm**-1
    29:    1038.12 cm**-1
    30:    1106.92 cm**-1
    31:    1329.85 cm**-1
    32:    1357.76 cm**-1
    33:    1389.29 cm**-1
    34:    1456.55 cm**-1
    35:    1462.17 cm**-1
    36:    1504.51 cm**-1
    37:    1678.10 cm**-1
    38:    1689.14 cm**-1
    39:    1715.83 cm**-1
    40:    3041.68 cm**-1
    41:    3113.11 cm**-1
    42:    3170.19 cm**-1
    43:    3330.49 cm**-1
    44:    3580.14 cm**-1
    45:    3729.02 cm**-1
    46:    3936.81 cm**-1
    47:    3950.62 cm**-1


------------
NORMAL MODES
------------

These modes are the Cartesian displacements weighted by the diagonal matrix
M(i,i)=1/sqrt(m[i]) where m[i] is the mass of the displaced atom
Thus, these vectors are normalized but *not* orthogonal

                  0          1          2          3          4          5    
      0       0.000000   0.000000   0.000000   0.000000   0.000000   0.000000
      1       0.000000   0.000000   0.000000   0.000000   0.000000   0.000000
      2       0.000000   0.000000   0.000000   0.000000   0.000000   0.000000
      3       0.000000   0.000000   0.000000   0.000000   0.000000   0.000000
      4       0.000000   0.000000   0.000000   0.000000   0.000000   0.000000
      5       0.000000   0.000000   0.000000   0.000000   0.000000   0.000000
      6       0.000000   0.000000   0.000000   0.000000   0.000000   0.000000
      7       0.000000   0.000000   0.000000   0.000000   0.000000   0.000000
      8       0.000000   0.000000   0.000000   0.000000   0.000000   0.000000
      9       0.000000   0.000000   0.000000   0.000000   0.000000   0.000000
     10       0.000000   0.000000   0.000000   0.000000   0.000000   0.000000
     11       0.000000   0.000000   0.000000   0.000000   0.000000   0.000000
     12       0.000000   0.000000   0.000000   0.000000   0.000000   0.000000
     13       0.000000   0.000000   0.000000   0.000000   0.000000   0.000000
     14       0.000000   0.000000   0.000000   0.000000   0.000000   0.000000
     15       0.000000   0.000000   0.000000   0.000000   0.000000   0.000000
     16       0.000000   0.000000   0.000000   0.000000   0.000000   0.000000
     17       0.000000   0.000000   0.000000   0.000000   0.000000   0.000000
     18       0.000000   0.000000   0.000000   0.000000   0.000000   0.000000
     19       0.000000   0.000000   0.000000   0.000000   0.000000   0.000000
     20       0.000000   0.000000   0.000000   0.000000   0.000000   0.000000
     21       0.000000   0.000000   0.000000   0.000000   0.000000   0.000000
     22       0.000000   0.000000   0.000000   0.000000   0.000000   0.000000
     23       0.000000   0.000000   0.000000   0.000000   0.000000   0.000000
     24       0.000000   0.000000   0.000000   0.000000   0.000000   0.000000
     25       0.000000   0.000000   0.000000   0.000000   0.000000   0.000000
     26       0.000000   0.000000   0.000000   0.000000   0.000000   0.000000
     27       0.000000   0.000000   0.000000   0.000000   0.000000   0.000000
     28       0.000000   0.000000   0.000000   0.000000   0.000000   0.000000
     29       0.000000   0.000000   0.000000   0.000000   0.000000   0.000000
     30       0.000000   0.000000   0.000000   0.000000   0.000000   0.000000
     31       0.000000   0.000000   0.000000   0.000000   0.000000   0.000000
     32       0.000000   0.000000   0.000000   0.000000   0.000000   0.000000
     33       0.000000   0.000000   0.000000   0.000000   0.000000   0.000000
     34       0.000000   0.000000   0.000000   0.000000   0.000000   0.000000
     35       0.000000   0.000000   0.000000   0.000000   0.000000   0.000000
     36       0.000000   0.000000   0.000000   0.000000   0.000000   0.000000
     37       0.000000   0.000000   0.000000   0.000000   0.000000   0.000000
     38       0.000000   0.000000   0.000000   0.000000   0.000000   0.000000
     39       0.000000   0.000000   0.000000   0.000000   0.000000   0.000000
     40       0.000000   0.000000   0.000000   0.000000   0.000000   0.000000
     41       0.000000   0.000000   0.000000   0.000000   0.000000   0.000000
     42       0.000000   0.000000   0.000000   0.000000   0.000000   0.000000
     43       0.000000   0.000000   0.000000   0.000000   0.000000   0.000000
     44       0.000000   0.000000   0.000000   0.000000   0.000000   0.000000
     45       0.000000   0.000000   0.000000   0.000000   0.000000   0.000000
     46       0.000000   0.000000   0.000000   0.000000   0.000000   0.000000
     47       0.000000   0.000000   0.000000   0.000000   0.000000   0.000000
                  6          7          8          9         10         11    
      0       0.004970  -0.030273   0.001355  -0.001213  -0.016056   0.003383
      1       0.010155  -0.016172   0.004206   0.113355  -0.027438   0.002300
      2       0.041663   0.017566   0.009931  -0.025859  -0.108831   0.019539
      3      -0.016721  -0.073244   0.003961  -0.165131  -0.010975  -0.022713
      4      -0.056231  -0.024662   0.010117   0.084364   0.007110  -0.016814
      5      -0.163953   0.016659   0.028124  -0.003358   0.003794  -0.028055
      6       0.015590  -0.005365  -0.002605   0.095269   0.011202   0.028723
      7       0.041089  -0.046961  -0.006654  -0.027075   0.063127   0.015074
      8       0.145915   0.027636  -0.027890  -0.043567   0.183997   0.127441
      9      -0.256061  -0.017567  -0.319998   0.191662  -0.190960   0.005276
     10       0.224109  -0.022414   0.296068  -0.013136   0.024129  -0.024165
     11      -0.099824  -0.005834  -0.434458  -0.065746   0.244696   0.181489
     12       0.252137   0.033572   0.255806   0.135708   0.217451   0.080365
     13      -0.261586  -0.084107  -0.501189  -0.036462   0.118529   0.078268
     14       0.003243   0.008946  -0.241298  -0.052294   0.176946   0.142996
     15       0.048245  -0.015476   0.042273   0.033874   0.028072   0.019743
     16       0.150412  -0.057602   0.141940  -0.133112   0.118879   0.000974
     17       0.502149   0.075637   0.449419  -0.027823   0.363081   0.136863
     18       0.006506  -0.018262   0.001295   0.036293  -0.032389   0.006795
     19       0.015543   0.009681   0.004337   0.216529  -0.089128   0.006959
     20       0.053173   0.005533   0.012516  -0.034645  -0.312917  -0.018248
     21      -0.022194  -0.093267   0.004635  -0.217662  -0.006613  -0.041047
     22      -0.071131  -0.054060   0.010759  -0.012687   0.029921  -0.093551
     23      -0.190453   0.012724   0.026487   0.046114   0.086697  -0.260732
     24      -0.023721  -0.098022   0.005933  -0.234491  -0.015083   0.000182
     25      -0.066405  -0.000576   0.013709   0.152107  -0.000383   0.080578
     26      -0.206527   0.023607   0.041424  -0.048403  -0.023878   0.265069
     27      -0.027536  -0.110598   0.006151  -0.296998  -0.014113   0.000631
     28      -0.079659  -0.001490   0.014495   0.130947   0.012866   0.081587
     29      -0.251874  -0.009346   0.045609  -0.081243   0.016882   0.274973
     30       0.011668  -0.174829  -0.000369   0.294095   0.048767   0.013725
     31       0.023249   0.286563  -0.009260  -0.271002   0.047562  -0.070929
     32       0.080502  -0.112644  -0.015162   0.041381   0.161566  -0.141348
     33       0.009510  -0.144011  -0.000176   0.237945   0.009154  -0.011252
     34       0.018947   0.239079  -0.007422  -0.170675  -0.017927  -0.094365
     35       0.066280  -0.104778  -0.011289   0.057378  -0.074604  -0.257614
     36       0.000160  -0.214606   0.003926   0.366484   0.125942   0.136520
     37      -0.000523   0.289468  -0.001388  -0.270739   0.194857   0.164015
     38       0.004181  -0.020082   0.009100  -0.112997   0.622187   0.593474
     39       0.036035   0.450052  -0.015347   0.131462   0.003519  -0.022504
     40       0.081155  -0.182905  -0.017658  -0.168344  -0.041516   0.059742
     41       0.207005   0.028027  -0.054442   0.061310  -0.051161   0.009727
     42       0.020373   0.185846  -0.008632  -0.075716  -0.007113  -0.026997
     43       0.061092  -0.126340  -0.016583  -0.119169  -0.024213   0.001762
     44       0.153828  -0.007369  -0.047985   0.048855  -0.019491  -0.121350
     45      -0.224197   0.537906   0.049503   0.100038   0.048749   0.363892
     46       0.225801  -0.122186  -0.047226  -0.097288  -0.087251   0.058284
     47       0.234094   0.004289  -0.062017   0.057434  -0.053336  -0.058002
                 12         13         14         15         16         17    
      0      -0.006035  -0.084409  -0.083396  -0.005733  -0.127899  -0.026893
      1      -0.014962  -0.079463  -0.009378  -0.001608   0.066204   0.008666
      2      -0.019083   0.048555   0.016801   0.002481  -0.018814  -0.000643
      3      -0.013358  -0.130571   0.031289  -0.013818  -0.027692   0.000882
      4      -0.009847  -0.083812  -0.005361   0.005734   0.049041   0.017821
      5       0.000163   0.045825  -0.001550   0.025521  -0.032663  -0.007112
      6       0.009191  -0.014870  -0.223642   0.023387   0.051122   0.010262
      7      -0.003320  -0.194248   0.148303  -0.036679  -0.144211  -0.045669
      8       0.056196   0.028826  -0.021305   0.012850   0.044338   0.014841
      9      -0.035480   0.060556  -0.333485   0.039519   0.190801   0.055948
[...]
     39      -0.000007   0.020040   0.023760  -0.001389  -0.000043  -0.000005
     40      -0.000535   0.043466   0.046811  -0.000667  -0.000084  -0.000011
     41      -0.001986   0.029923   0.033232  -0.000589   0.000041  -0.000003
     42      -0.104068  -0.123106  -0.259548   0.017327   0.000562   0.000050
     43       0.018983  -0.245950  -0.247261   0.002233   0.001108   0.000154
     44       0.034875  -0.613780  -0.671506   0.012764  -0.000653   0.000062
     45       0.014426  -0.174301  -0.184869   0.002796   0.000002   0.000002
     46       0.021130  -0.474294  -0.522611   0.008733  -0.000040   0.000047
     47      -0.005271   0.094219   0.103642  -0.002136   0.000071  -0.000009
                 42         43         44         45         46         47    
      0       0.000048   0.000402  -0.001472   0.000217   0.000269  -0.000021
      1       0.001262   0.001066   0.001111   0.000097  -0.000117  -0.000096
      2      -0.000402  -0.000268  -0.000256  -0.000052   0.000016   0.000062
      3      -0.000678  -0.007361   0.000689  -0.002460  -0.000272   0.000386
      4      -0.000160  -0.001041   0.001231  -0.001706  -0.000387  -0.000022
      5       0.000106   0.000990  -0.000458   0.000746   0.000145  -0.000014
      6      -0.068281  -0.000355   0.000344   0.000005  -0.000073   0.000007
      7       0.060361   0.000058   0.000171   0.000196  -0.000007   0.000026
      8      -0.013185   0.000010  -0.000063  -0.000068   0.000003   0.000009
      9      -0.013984   0.000304   0.000636   0.000189  -0.000108  -0.000027
     10      -0.206689  -0.000538  -0.001572   0.000356   0.000200   0.000024
     11      -0.165347  -0.000056  -0.000810  -0.000083   0.000058  -0.000019
     12       0.027033   0.000421   0.000717   0.000197  -0.000115   0.000009
     13      -0.081559  -0.000368  -0.000964   0.000347   0.000147   0.000038
     14       0.263838   0.000206   0.001490  -0.000135  -0.000150   0.000046
     15       0.798459   0.004943   0.003267  -0.000225  -0.000424  -0.000120
     16      -0.450000  -0.001068   0.000665  -0.000470  -0.000138  -0.000116
     17       0.064812  -0.000130  -0.000490   0.000169   0.000079   0.000027
     18       0.000193   0.000397  -0.000010  -0.000057  -0.000232  -0.000031
     19      -0.000077  -0.000446  -0.001735   0.000216   0.000065   0.000046
     20       0.000016   0.000080   0.000580  -0.000057   0.000010   0.000003
     21       0.000324   0.003549  -0.000179   0.001590   0.000127  -0.000199
     22       0.000512  -0.000743  -0.000392  -0.000726   0.000075   0.000196
     23      -0.000191  -0.000424   0.000153   0.000183  -0.000035  -0.000111
     24       0.000047   0.004530  -0.000980   0.022105  -0.000033  -0.000518
     25      -0.000011  -0.005552   0.000789  -0.056119   0.000340   0.001003
     26      -0.000001   0.001311  -0.000163   0.016533  -0.000093  -0.000320
     27      -0.000060  -0.034221   0.007724  -0.339898  -0.001997   0.007750
     28      -0.000625   0.094049  -0.019377   0.894594   0.000836  -0.016225
     29       0.000162  -0.023302   0.005516  -0.261430  -0.000045   0.006025
     30       0.000140  -0.000785  -0.048129  -0.001036  -0.019351  -0.000162
     31       0.000124  -0.000567  -0.028803  -0.000563   0.056709   0.000169
     32      -0.000060   0.000279   0.015962   0.000322  -0.014734  -0.000020
     33      -0.002146   0.013238   0.776459   0.016474  -0.069844   0.001146
     34      -0.001910   0.010772   0.551947   0.009796  -0.010328   0.000669
     35       0.000920  -0.005251  -0.284405  -0.005430   0.013424  -0.000382
     36       0.000290  -0.001836  -0.001123   0.001385   0.382194   0.001678
     37       0.000042  -0.000932  -0.082317  -0.000171  -0.892379  -0.003368
     38      -0.000059   0.000664   0.025639  -0.000139   0.220444   0.000755
     39      -0.000074   0.016247  -0.000256  -0.002721   0.000026   0.008918
     40      -0.000262   0.053061  -0.000853  -0.004187   0.000043   0.002533
     41       0.000113  -0.022638   0.000229   0.002908  -0.000254   0.061604
     42       0.001514  -0.271551   0.003438   0.036805  -0.000387   0.021913
     43       0.003924  -0.845773   0.013411   0.089098  -0.001021   0.057391
     44      -0.002070   0.435935  -0.006776  -0.045075   0.000424  -0.000496
     45       0.000021  -0.004100   0.000612  -0.003824   0.000494  -0.163886
     46      -0.000082   0.016697   0.000196  -0.002527   0.000390  -0.099964
     47       0.000341  -0.077248   0.003083  -0.011009   0.003555  -0.977300


-----------
IR SPECTRUM
-----------

 Mode   freq       eps      Int      T**2         TX        TY        TZ
       cm**-1   L/(mol*cm) km/mol    a.u.
----------------------------------------------------------------------------
  7:     56.91   0.000431    2.18  0.002362  (-0.036595  0.031352 -0.006332)
  8:     85.07   0.000145    0.73  0.000532  ( 0.018007 -0.011824 -0.008221)
  9:    121.36   0.000976    4.93  0.002509  (-0.015984  0.037266 -0.029407)
 10:    132.83   0.001192    6.03  0.002801  ( 0.009489  0.014533  0.050000)
 11:    149.04   0.004410   22.29  0.009235  ( 0.052498  0.022120  0.077390)
 12:    189.08   0.006124   30.95  0.010107  ( 0.016722 -0.039474 -0.090933)
 13:    211.29   0.001428    7.22  0.002110  ( 0.040663 -0.017202  0.012661)
 14:    228.05   0.000033    0.17  0.000045  ( 0.004618  0.002214 -0.004371)
 15:    269.99   0.014554   73.55  0.016821  (-0.125207  0.032914 -0.007830)
 16:    360.42   0.005183   26.19  0.004488  ( 0.046025 -0.044811  0.019015)
 17:    407.27   0.014700   74.29  0.011263  (-0.028564 -0.096101  0.034816)
 18:    444.89   0.004595   23.22  0.003223  ( 0.009807  0.043498 -0.035142)
 19:    451.93   0.009379   47.40  0.006476  ( 0.000829  0.058618 -0.055133)
 20:    527.97   0.000150    0.76  0.000088  (-0.007538  0.004265 -0.003669)
 21:    563.81   0.002547   12.87  0.001409  (-0.035761  0.010756 -0.003858)
 22:    644.40   0.010054   50.81  0.004869  (-0.028525 -0.061614  0.016083)
 23:    692.38   0.007911   39.98  0.003566  (-0.008737  0.001922  0.059039)
 24:    753.90   0.031231  157.83  0.012927  ( 0.014112  0.028986  0.109033)
 25:    775.93   0.003639   18.39  0.001464  ( 0.000863  0.002739  0.038150)
 26:    793.69   0.000352    1.78  0.000138  ( 0.000373  0.002026 -0.011583)
 27:    954.32   0.042334  213.94  0.013843  ( 0.088387 -0.077311  0.007345)
 28:   1004.71   0.004390   22.18  0.001363  (-0.016490 -0.031396  0.010287)
 29:   1038.12   0.000660    3.34  0.000198  (-0.001052 -0.004200 -0.013407)
 30:   1106.92   0.048331  244.25  0.013626  ( 0.070107  0.087193 -0.033286)
 31:   1329.85   0.001522    7.69  0.000357  ( 0.005377 -0.018034  0.001771)
 32:   1357.76   0.014984   75.72  0.003444  ( 0.057574  0.009278 -0.006551)
 33:   1389.29   0.006910   34.92  0.001552  ( 0.022780 -0.030892  0.008885)
 34:   1456.55   0.004436   22.42  0.000950  (-0.030558 -0.000980  0.003950)
 35:   1462.17   0.001785    9.02  0.000381  (-0.002195 -0.005728 -0.018529)
 36:   1504.51   0.053826  272.02  0.011165  ( 0.105201 -0.008915 -0.004225)
 37:   1678.10   0.008167   41.27  0.001519  (-0.035589 -0.007261 -0.014127)
 38:   1689.14   0.007885   39.85  0.001457  ( 0.003849 -0.035885 -0.012414)
 39:   1715.83   0.028358  143.31  0.005158  (-0.070538  0.012223  0.005703)
 40:   3041.68   0.000117    0.59  0.000012  ( 0.002840  0.001723 -0.000988)
 41:   3113.11   0.000040    0.20  0.000004  ( 0.000068  0.000568  0.001919)
 42:   3170.19   0.000836    4.22  0.000082  (-0.008072 -0.003687  0.001878)
 43:   3330.49   0.136055  687.57  0.012748  ( 0.015885 -0.100554  0.048835)
 44:   3580.14   0.105388  532.59  0.009186  ( 0.088580  0.030197 -0.020683)
 45:   3729.02   0.112370  567.87  0.009404  (-0.020895  0.088227 -0.034396)
 46:   3936.81   0.004806   24.29  0.000381  (-0.001053 -0.018581  0.005878)
 47:   3950.62   0.011744   59.35  0.000928  (-0.005918  0.013610 -0.026598)

* The epsilon (eps) is given for a Dirac delta lineshape.
** The dipole moment derivative (T) already includes vibrational overlap.

The first frequency considered to be a vibration is 7
The total number of vibrations considered is 41


--------------------------
THERMOCHEMISTRY AT 298.15K
--------------------------

Temperature         ...   298.15 K
Pressure            ...     1.00 atm
Total Mass          ...   124.09 AMU
Quasi RRHO          ...     True
Cut-Off Frequency   ...     1.00 cm^-1

Throughout the following assumptions are being made:
  (1) The electronic state is orbitally nondegenerate
  (2) There are no thermally accessible electronically excited states
  (3) Hindered rotations indicated by low frequency modes are not
      treated as such but are treated as vibrations and this may
      cause some error
  (4) All equations used are the standard statistical mechanics
      equations for an ideal gas
  (5) All vibrations are strictly harmonic

freq.      56.91  E(vib)   ...       0.51 
freq.      85.07  E(vib)   ...       0.48 
freq.     121.36  E(vib)   ...       0.44 
freq.     132.83  E(vib)   ...       0.42 
freq.     149.04  E(vib)   ...       0.40 
freq.     189.08  E(vib)   ...       0.36 
freq.     211.29  E(vib)   ...       0.34 
freq.     228.05  E(vib)   ...       0.33 
freq.     269.99  E(vib)   ...       0.29 
freq.     360.42  E(vib)   ...       0.22 
freq.     407.27  E(vib)   ...       0.19 
freq.     444.89  E(vib)   ...       0.17 
freq.     451.93  E(vib)   ...       0.16 
freq.     527.97  E(vib)   ...       0.13 
freq.     563.81  E(vib)   ...       0.11 
freq.     644.40  E(vib)   ...       0.09 
freq.     692.38  E(vib)   ...       0.07 
freq.     753.90  E(vib)   ...       0.06 
freq.     775.93  E(vib)   ...       0.05 
freq.     793.69  E(vib)   ...       0.05 
freq.     954.32  E(vib)   ...       0.03 
freq.    1004.71  E(vib)   ...       0.02 
freq.    1038.12  E(vib)   ...       0.02 
freq.    1106.92  E(vib)   ...       0.02 
freq.    1329.85  E(vib)   ...       0.01 
freq.    1357.76  E(vib)   ...       0.01 
freq.    1389.29  E(vib)   ...       0.00 
freq.    1456.55  E(vib)   ...       0.00 
freq.    1462.17  E(vib)   ...       0.00 
freq.    1504.51  E(vib)   ...       0.00 
freq.    1678.10  E(vib)   ...       0.00 
freq.    1689.14  E(vib)   ...       0.00 
freq.    1715.83  E(vib)   ...       0.00 
freq.    3041.68  E(vib)   ...       0.00 
freq.    3113.11  E(vib)   ...       0.00 
freq.    3170.19  E(vib)   ...       0.00 
freq.    3330.49  E(vib)   ...       0.00 
freq.    3580.14  E(vib)   ...       0.00 
freq.    3729.02  E(vib)   ...       0.00 
freq.    3936.81  E(vib)   ...       0.00 
freq.    3950.62  E(vib)   ...       0.00 

------------
INNER ENERGY
------------

The inner energy is: U= E(el) + E(ZPE) + E(vib) + E(rot) + E(trans)
    E(el)   - is the total energy from the electronic structure calculation
              = E(kin-el) + E(nuc-el) + E(el-el) + E(nuc-nuc)
    E(ZPE)  - the the zero temperature vibrational energy from the frequency calculation
    E(vib)  - the the finite temperature correction to E(ZPE) due to population
              of excited vibrational states
    E(rot)  - is the rotational thermal energy
    E(trans)- is the translational thermal energy

Summary of contributions to the inner energy U:
Electronic energy                ...   -495.17021717 Eh
Zero point energy                ...      0.12165311 Eh      76.34 kcal/mol
Thermal vibrational correction   ...      0.00796113 Eh       5.00 kcal/mol
Thermal rotational correction    ...      0.00141627 Eh       0.89 kcal/mol
Thermal translational correction ...      0.00141627 Eh       0.89 kcal/mol
-----------------------------------------------------------------------
Total thermal energy                   -495.03777040 Eh


Summary of corrections to the electronic energy:
(perhaps to be used in another calculation)
Total thermal correction                  0.01079367 Eh       6.77 kcal/mol
Non-thermal (ZPE) correction              0.12165311 Eh      76.34 kcal/mol
-----------------------------------------------------------------------
Total correction                          0.13244678 Eh      83.11 kcal/mol


--------
ENTHALPY
--------

The enthalpy is H = U + kB*T
                kB is Boltzmann's constant
Total thermal energy              ...   -495.03777040 Eh 
Thermal Enthalpy correction       ...      0.00094421 Eh       0.59 kcal/mol
-----------------------------------------------------------------------
Total Enthalpy                    ...   -495.03682619 Eh


Note: Only C1 symmetry has been detected, increase convergence thresholds 
      if your molecule has a higher symmetry. Symmetry factor of 1.0 is   
      used for the rotational entropy correction. 
 

Note: Rotational entropy computed according to Herzberg 
Infrared and Raman Spectra, Chapter V,1, Van Nostrand Reinhold, 1945 
Point Group:  C1, Symmetry Number:   1  
Rotational constants in cm-1:     0.063824     0.038928     0.024382 

Vibrational entropy computed according to the QRRHO of S. Grimme
Chem.Eur.J. 2012 18 9955 using a reference frequency of 100.0 cm-1


-------
ENTROPY
-------

The entropy contributions are T*S = T*(S(el)+S(vib)+S(rot)+S(trans))
     S(el)   - electronic entropy
     S(vib)  - vibrational entropy
     S(rot)  - rotational entropy
     S(trans)- translational entropy
The entropies will be listed as multiplied by the temperature to get
units of energy

Electronic entropy                ...      0.00000000 Eh      0.00 kcal/mol
Vibrational entropy               ...      0.01406996 Eh      8.83 kcal/mol
Rotational entropy                ...      0.01409555 Eh      8.85 kcal/mol
Translational entropy             ...      0.01917695 Eh     12.03 kcal/mol
-----------------------------------------------------------------------
Final entropy term                ...      0.04734247 Eh     29.71 kcal/mol

In case the symmetry of your molecule has not been determined correctly
or in case you have a reason to use a different symmetry number we print 
out the resulting rotational entropy values for sn=1,12:

 non-linear molecules -----------------------------------
|  sn= 1 | S(rot)=       0.01409555 Eh      8.85 kcal/mol|
|  sn= 2 | S(rot)=       0.01344110 Eh      8.43 kcal/mol|
|  sn= 3 | S(rot)=       0.01305827 Eh      8.19 kcal/mol|
|  sn= 4 | S(rot)=       0.01278664 Eh      8.02 kcal/mol|
|  sn= 5 | S(rot)=       0.01257595 Eh      7.89 kcal/mol|
|  sn= 6 | S(rot)=       0.01240381 Eh      7.78 kcal/mol|
|  sn= 7 | S(rot)=       0.01225826 Eh      7.69 kcal/mol|
|  sn= 8 | S(rot)=       0.01213219 Eh      7.61 kcal/mol|
|  sn= 9 | S(rot)=       0.01202098 Eh      7.54 kcal/mol|
|  sn=10 | S(rot)=       0.01192150 Eh      7.48 kcal/mol|
|  sn=11 | S(rot)=       0.01183151 Eh      7.42 kcal/mol|
|  sn=12 | S(rot)=       0.01174935 Eh      7.37 kcal/mol|
 linear molecules ---------------------------------------
|  Dinfh | S(rot)=       0.00883241 Eh      5.54 kcal/mol|
|  Cinfv | S(rot)=       0.00948687 Eh      5.95 kcal/mol|
 --------------------------------------------------------


-------------------
GIBBS FREE ENERGY
-------------------

The Gibbs free energy is G = H - T*S

Total enthalpy                    ...   -495.03682619 Eh 
Total entropy correction          ...     -0.04734247 Eh    -29.71 kcal/mol
-----------------------------------------------------------------------
Final Gibbs free energy         ...   -495.08416865 Eh

For completeness - the Gibbs free energy minus the electronic energy
G-E(el)                           ...      0.08604852 Eh     54.00 kcal/mol


Maximum memory used throughout the entire PROP-calculation: 45.1 MB

--------------------------------
SUGGESTED CITATIONS FOR THIS RUN
--------------------------------

Below you find a list of papers that are relevant to this ORCA run
We neither can nor want to force you to cite these papers, but we appreciate if you do
You receive ORCA, which is the product of decades of hard work by many enthusiastic individuals, for free
The only thing we kindly ask in return is that you cite our papers,
We deeply appreciate it, if you show your appreciation for ORCA by not just citing the generic ORCA reference.

Please note that relegating all ORCA citations to the supporting information does *not* help us.
SI sections are not indexed - citations you put there will not count into any citation statistics
But we need these citations in order to attract the funding resources that allow us to do what we are doing

Therefore, if you are a happy ORCA user, please consider citing a few of the papers listed below in the main body of your paper

In addition to the list printed below, the program has created the file s0_freq_2_wat_non.bibtex that contains the list in bibtex format
You can import this file easily into all common literature databanks and citation aid programs


List of essential papers. We consider these as the minimum necessary citations

  1. Neese, F.
     Software update: the ORCA program system, version 6.0
     WIRES Comput. Molec. Sci. 2025 15(1), e70019
     doi.org/10.1002/wcms.7019

List of papers to cite with high priority. The work reported in these papers was absolutely
necessary for this run to complete.
Our perspective: the developers of density functionals and basis sets usually get cited in chemistry papers
Good! But without the algorithms to do something with them, the functionals or basis sets would not do anything.
Hence, in our opinion, the algorithm design and method developments papers are equally worthy of getting cited

  1. Bykov, D.; Petrenko, T.; Izsak, R.; Kossmann, S.; Becker, U.; Valeev, E.; Neese, F.
     Efficient implementation of the analytic second derivatives of Hartree-Fock and hybrid DFT energies: a detailed analysis of different approximations
     Molec. Phys. 2015 113 , 1961-1977
     doi.org/10.1080/00268976.2015.1025114
  2. Lehtola, S.; Steigemann, C.; Oliveira, M.; Marques, M.
     Recent developments in Libxc - A comprehensive library of functionals for density functional theory
     Software X 2018 7 , 
     doi.org/10.1016/j.softx.2017.11.002
  3. Neese, F.
     The SHARK Integral Generation and Digestion System
     J. Comp. Chem. 2022 44(3), 381
     doi.org/10.1002/jcc.26942

List of suggested additional citations. These are papers that are important in the 'surrounding' of 
of this run, or papers that preceded the highly important papers. If you like your results we are grateful for a citation.

  1. Neese, F.
     The ORCA program system
     WIRES Comput. Molec. Sci. 2012 2(1), 73-78
     doi.org/10.1002/wcms.81
  2. Neese, F.
     Software update: the ORCA program system, version 4.0
     WIRES Comput. Molec. Sci. 2018 8(1), 1-6
     doi.org/10.1002/wcms.1327
  3. Neese, F.; Wennmohs, F.; Becker, U.; Riplinger, C.
     The ORCA quantum chemistry program package
     J. Chem. Phys. 2020 152(22), 224108
     doi.org/10.1063/5.0004608
  4. Neese, F.
     Software update: The ORCA program system—Version 5.0
     WIRES Comput. Molec. Sci. 2022 12(1), e1606
     doi.org/10.1002/wcms.1606

List of optional additional citations

  1. Neese, F.
     Approximate second-order SCF convergence for spin unrestricted wavefunctions
     Chem. Phys. Lett. 2000 325(1-3), 93-98
     doi.org/10.1016/s0009-2614(00)00662-x

Timings for individual modules:

Sum of individual times          ...     2789.661 sec (=  46.494 min)
Startup calculation              ...       10.508 sec (=   0.175 min)   0.4 %
SCF iterations                   ...       96.775 sec (=   1.613 min)   3.5 %
Property integrals               ...      250.804 sec (=   4.180 min)   9.0 %
SCF Response                     ...     2111.406 sec (=  35.190 min)  75.7 %
Property calculations            ...      288.311 sec (=   4.805 min)  10.3 %
SCF Gradient evaluation          ...       31.857 sec (=   0.531 min)   1.1 %
                             ****ORCA TERMINATED NORMALLY****
TOTAL RUN TIME: 0 days 0 hours 46 minutes 30 seconds 406 msec
