
                                 *****************
                                 * O   R   C   A *
                                 *****************

                                            #,                                       
                                            ###                                      
                                            ####                                     
                                            #####                                    
                                            ######                                   
                                           ########,                                 
                                     ,,################,,,,,                         
                               ,,#################################,,                 
                          ,,##########################################,,             
                       ,#########################################, ''#####,          
                    ,#############################################,,   '####,        
                  ,##################################################,,,,####,       
                ,###########''''           ''''###############################       
              ,#####''   ,,,,##########,,,,          '''####'''          '####       
            ,##' ,,,,###########################,,,                        '##       
           ' ,,###''''                  '''############,,,                           
         ,,##''                                '''############,,,,        ,,,,,,###''
      ,#''                                            '''#######################'''  
     '                                                          ''''####''''         
             ,#######,   #######,   ,#######,      ##                                
            ,#'     '#,  ##    ##  ,#'     '#,    #''#        ,####,    ,#,          
            ##       ##  ##   ,#'  ##            #'  '#       #'       ,# #          
            ##       ##  #######   ##           ,######,      #####,      #          
            '#,     ,#'  ##    ##  '#,     ,#' ,#      #,     #,   #      #          
             '#######'   ##     ##  '#######'  #'      '#     '####' #    #          



                #########################################################
                #                        -***-                          #
                #          Department of theory and spectroscopy        #
                #                                                       #
                #                      Frank Neese                      #
                #                                                       #
                #     Directorship, Architecture, Infrastructure        #
                #                    SHARK, DRIVERS                     #
                #        Core code/Algorithms in most modules           #
                #                                                       #
                #        Max Planck Institute fuer Kohlenforschung      #
                #                Kaiser Wilhelm Platz 1                 #
                #                 D-45470 Muelheim/Ruhr                 #
                #                      Germany                          #
                #                                                       #
                #                  All rights reserved                  #
                #                        -***-                          #
                #########################################################


                         Program Version 6.1.0  -  RELEASE   -
                                (GIT: $679e74b$)
                          ($2025-06-10 18:02:51 +0200$)


 With contributions from (in alphabetic order):
[Max-Planck-Institut fuer Kohlenforschung]                               
  Daniel Aravena         : Magnetic Suceptibility                        
  Michael Atanasov       : Ab Initio Ligand Field Theory (pilot matlab implementation)
  Alexander A. Auer      : GIAO ZORA, VPT2 properties, NMR spectrum      
  Ute Becker             : All parallelization in ORCA, NUMFREQ, NUMCALC 
  Giovanni Bistoni       : ED, misc. LED, open-shell LED, HFLD           
  Dmytro Bykov           : pre 5.0 version of the SCF Hessian            
  Marcos Casanova-Páez   : Triplet and SCS-CIS(D). UHF-(DLPNO)-IP/EA/STEOM-CCSD. UHF-CVS-IP/STEOM-CCSD   
  Vijay G. Chilkuri      : MRCI spin determinant printing, contributions to CSF-ICE 
  Pauline Colinet        : FMM embedding                                 
  Dipayan Datta          : RHF DLPNO-CCSD density                        
  Achintya Kumar Dutta   : EOM-CC, STEOM-CC                              
  Nicolas Foglia         : Exact transition moments, OPA infrastructure, MCD improvements    
  Dmitry Ganyushin       : Spin-Orbit,Spin-Spin,Magnetic field MRCI      
  Miquel Garcia-Rates    : C-PCM and meta-GGA Hessian, CCSD/C-PCM, Gaussian charge scheme 
  Tiago L. C. Gouveia    : GS-ROHF, GS-ROCIS                             
  Yang Guo               : DLPNO-NEVPT2, F12-NEVPT2, CIM, IAO-localization        
  Andreas Hansen         : Spin unrestricted coupled pair/coupled cluster methods 
  Ingolf Harden          : AUTO-CI MPn and infrastructure                
  Benjamin Helmich-Paris : MC-RPA, TRAH-(SCF,CASSCF), AVAS, COSX integrals, SCF dyn. polar., MC-PDFT, srDFT 
  Lee Huntington         : MR-EOM, pCC                                   
  Robert Izsak           : Overlap fitted RIJCOSX, COSX-SCS-MP3, EOM     
  Riya Kayal             : Wick's Theorem for AUTO-CI, AUTO-CI UHF-CCSDT 
  Emily Kempfer          : AUTO-CI RHF CISDT and CCSDT, approximate NEVPT4
  Christian Kollmar      : KDIIS, OOCD, Brueckner-CCSD(T), CCSD density, CASPT2, CASPT2-K, improved NEVPT2 
  Axel Koslowski         : Symmetry handling                             
  Simone Kossmann        : meta-GGA functionals, TD-DFT gradient, OOMP2, (MP2 Hessian; deprecated post 5.0) 
  Lucas Lang             : DCDCAS, Hyperfine gauge corrections, ICE-SOC+SSC
  Marvin Lechner         : AUTO-CI (C++ implementation), FIC-MRCC        
  Spencer Leger          : CASSCF response                               
  Dagmar Lenk            : GEPOL surface, SMD, ORCA-2-JSON               
  Dimitrios Liakos       : Extrapolation schemes; Compound Job, Property file
  Dimitrios Manganas     : Further ROCIS development; embedding schemes. LFT, Crystal Embedding 
  Dimitrios Pantazis     : SARC Basis sets                               
  Anastasios Papadopoulos: AUTO-CI, single reference methods and gradients 
  Taras Petrenko         : pre 6.0 DFT Hessian and TD-DFT gradient,  ECA, NRVS 
  Petra Pikulova         : Analytic Raman intensities                    
  Peter Pinski           : DLPNO-MP2, DLPNO-MP2 Gradient                 
  Shashank Vittal Rao    : ES-AILFT, MagRelax                            
  Christoph Reimann      : Effective Core Potentials                     
  Marius Retegan         : Local ZFS, SOC                                
  Christoph Riplinger    : Optimizer, TS searches, QM/MM, DLPNO-CCSD(T), (RO)-DLPNO pert. Triples 
  Michael Roemelt        : Original ROCIS implementation, recursive CI coupling coefficients
  Masaaki Saitow         : Open-shell DLPNO-CCSD energy and density      
  Barbara Sandhoefer     : DKH picture change effects                    
  Yorick L. A. Schmerwitz: GMF and freeze-and-release deltaSCF, NEB S-IDPP initial path                    
  Kantharuban Sivalingam : CASSCF convergence/infrastructure, NEVPT2, NEVPT3, NEVPT4(SD), FIC-MRCI and CEPA variants
  Bernardo de Souza      : ESD, SOC TD-DFT                               
  Georgi L. Stoychev     : AutoAux, RI-MP2 NMR, DLPNO-MP2 response, X2C  
  Van Anh Tran           : RI-MP2 g-tensors                              
  Willem Van den Heuvel  : Paramagnetic NMR                              
  Zikuan Wang            : NOTCH, Electric field optimization            
  Frank Wennmohs         : Technical directorship and infrastructure     
  Hang Xu                : AUTO-CI-Response properties                   
                                                                         
[FACCTs GmbH]                                                            
  Markus Bursch, Nicolas Foglia, Miquel Garcia-Rates, Ingolf Harden, Hagen Neugebauer, Anastasios Papadopoulos, 
  Christoph Riplinger, Bernardo de Souza, Georgi L. Stoychev                                                    
                                                                 
  APM, various basis sets, CI-OPT, improved COSX, DLPNO-Multilevel,           
  DOCKER, DRACO, updates on ESD, Fragmentator, GOAT, IRC, LR-CPCM, L-BFGS, MBIS, meta-GGA TD-DFT gradient, ML-optimized integration grids, 
  MM, NACMEs, nearIR, NEB, NEB-TS, NL-DFT gradient (VV10), 2- and 3-layer-ONIOM, interface openCOSMO-RS, QMMM,   
  Crystal-QMMM, RESP, rigid body optimization, SF, symmetry and pop. for TD-DFT, various functionals, SOLVATOR                                   
                                                                         
[Other institutions]                                                     
  V. Asgeirsson          : NEB                                           
  Christoph Bannwarth    : sTDA-DFT, sTD-DFT, PBEh-3c, B97-3c, D3        
  Giovanni Bistoni       : ETS/NOCV, ADLD/ADEX, COVALED                  
  Martin Brehm           : Molecular dynamics                            
  Ronald Cardenas        : ETS/NOCV                                      
  Martina Colucci        : COVALED                                       
  Sebastian Ehlert       : rSCAN, r2SCAN, r2SCAN-3c, D4, dhf basis sets  
  Marvin Friede          : D4 for Fr, Ra, Ac-Lr                          
  Lars Goerigk           : TD-DFT with DH, B97 family of functionals     
  Stefan Grimme          : VdW corrections, initial TS optimization, DFT functionals, gCP, sTDA/sTD-DF 
  Waldemar Hujo          : DFT-NL                                        
  H. Jonsson             : NEB                                           
  Holger Kruse           : gCP                                           
  Marcel Mueller         : wB97X-3c, vDZP basis set                      
  Hagen Neugebauer       : wr2SCAN, Native XTB                           
  Gianluca Regni         : ADLD/ADEX                                     
  Tobias Risthaus        : pre 6.0 range-separated hybrid DFT and stability analysis
  Lukas Wittmann         : regularized MP2, r2SCAN double-hybrids, wr2SCAN        
                                                                         
We gratefully acknowledge several colleagues who have allowed us to      
interface, adapt or use parts of their codes:                            
  Ed Valeev, F. Pavosevic, A. Kumar             : LibInt (2-el integral package), F12 methods 
  Garnet Chan, S. Sharma, J. Yang, R. Olivares  : DMRG                   
  Ulf Ekstrom                                   : XCFun DFT Library      
  Mihaly Kallay                                 : mrcc  (arbitrary order and MRCC methods)
  Frank Weinhold                                : gennbo (NPA and NBO analysis)           
  Simon Mueller                                 : openCOSMO-RS                            
  Christopher J. Cramer and Donald G. Truhlar   : smd solvation model                     
  S Lehtola, MJT Oliveira, MAL Marques          : LibXC Library                           
  Liviu Ungur et al                             : ANISO software                          


 Your calculation uses the libint2 library for the computation of 2-el integrals
 For citations please refer to: http://libint.valeyev.net

 Your ORCA version has been built with support for libXC version: 7.0.0
 For citations please refer to: https://libxc.gitlab.io

 This ORCA versions uses:
   CBLAS   interface :  Fast vector & matrix operations
   LAPACKE interface :  Fast linear algebra routines
   SCALAPACK package :  Parallel linear algebra routines
   Shared memory     :  Shared parallel matrices
   BLAS/LAPACK       :  OpenBLAS 0.3.29  USE64BITINT DYNAMIC_ARCH NO_AFFINITY SkylakeX SINGLE_THREADED
        Core in use  :  SkylakeX
   Copyright (c) 2011-2014, The OpenBLAS Project


  ***********************************
  * Starting time: Wed Jan 28 11:46:00 2026
  * Host name:     bp1-compute129.data.bp.acrc.priv
  * Process ID:    3222656
  * Working dir.:  /user/work/kp22738/Diss/Orca/pyruvic_anion/dyson_orbitals/2_wat_non/15365058_s1_freq_2_wat_non
  ***********************************

NOTE: MaxCore=8000 MB was set to SCF,MP2,MDCI,CIPSI,MRCI,RASCI and CIS
      => If you want to overwrite this, your respective input block should be placed after the MaxCore statement
Using LibXC functional ID 471 : wB97X-D range-separated functional
[ 1]  J.-D. Chai and M. Head-Gordon.,  Phys. Chem. Chem. Phys. 10, 6615-6620 (2008)
Using LibXC functional ID 471 : wB97X-D range-separated functional
[ 1]  J.-D. Chai and M. Head-Gordon.,  Phys. Chem. Chem. Phys. 10, 6615-6620 (2008)
Your calculation utilizes LibXC
by S. Lehtola, C. Steigemann, M. J. T. Oliveira & M. A. L. Marques
Please cite in your paper:
Lehtola, S.; Steigemann, C.; Oliveira, M.J.T.; Marques, M. A. L. Software X, 7, (2018), 1.
   

================================================================================

----- Orbital basis set information -----
Your calculation utilizes the basis: aug-cc-pVDZ 
    H, B-Ne : Obtained from the ccRepo (grant-hill.group.shef.ac.uk/ccrepo) Feb. 2017
              R. A. Kendall, T. H. Dunning, Jr., R. J. Harrison, J. Chem. Phys. 96, 6796 (1992)
         He : Obtained from the ccRepo (grant-hill.group.shef.ac.uk/ccrepo) Feb. 2017
              D. E. Woon, T. H. Dunning, Jr., J. Chem. Phys. 100, 2975 (1994)
  Li-Be, Na : Obtained from the ccRepo (grant-hill.group.shef.ac.uk/ccrepo) Feb. 2017
              B. P. Prascher, D. E. Woon, K. A. Peterson, T. H. Dunning, Jr., A. K. Wilson, Theor. Chem. Acc. 128, 69 (2011)
         Mg : Obtained from the Peterson Research Group Website (tyr0.chem.wsu.edu/~kipeters) Feb. 2017
              B. P. Prascher, D. E. Woon, K. A. Peterson, T. H. Dunning, Jr., A. K. Wilson, Theor. Chem. Acc. 128, 69 (2011)
      Al-Ar : Obtained from the ccRepo (grant-hill.group.shef.ac.uk/ccrepo) Feb. 2017
              D. E. Woon, T. H. Dunning, Jr., J. Chem. Phys. 98, 1358 (1993)
      Sc-Zn : Obtained from the ccRepo (grant-hill.group.shef.ac.uk/ccrepo) Feb. 2017
              N. B. Balabanov, K. A. Peterson, J. Chem. Phys. 123, 064107 (2005)
              N. B. Balabanov, K. A. Peterson, J. Chem. Phys. 125, 074110 (2006)
      Ga-Kr : Obtained from the ccRepo (grant-hill.group.shef.ac.uk/ccrepo) Feb. 2017
              A. K. Wilson, D. E. Woon, K. A. Peterson, T. H. Dunning, Jr., J. Chem. Phys. 110, 7667 (1999)

================================================================================
                                        WARNINGS
                       Please study these warnings very carefully!
================================================================================


WARNING: Analytical Frequencies for this method not available!
  ===> : Switching to Numerical Frequencies!

WARNING: The environment variable RSH_COMMAND is not set!
  ===> : All Displacements for the Numerical Hessian or Gradient calculation
         will be started on localhost

WARNING: CIS/ROCIS methods need fully converged wavefunctions
  ===> : Setting SCFConvForced true
         You can overwrite this default with %scf ConvForced false 


================================================================================
                                       INPUT FILE
================================================================================
NAME = s1_freq_2_wat_non.inp
|  1> ! aug-cc-pVDZ TightSCF Engrad ANFREQ
|  2> 
|  3> %PAL NPROCS 8 END
|  4> 
|  5> %maxcore 8000
|  6> 
|  7> %method
|  8> method dft
|  9> functional hyb_gga_xc_wb97x_d
| 10> end
| 11> 
| 12> %TDDFT
| 13> NROOTS 10
| 14> DONTO TRUE
| 15> IROOT 1
| 16> END
| 17> 
| 18> * xyz 0 1
| 19>   C     -0.781619    2.941696   -0.355449
| 20>   C     -0.488224    1.600086    0.048194
| 21>   C      0.390157    3.821511   -0.737226
| 22>   H      0.415675    4.707737   -0.083181
| 23>   H      0.257049    4.185181   -1.768394
| 24>   H      1.342258    3.284935   -0.659930
| 25>   O     -1.957549    3.424569   -0.408821
| 26>   O      0.666084    1.085673    0.121898
| 27>   O     -1.576054    0.826243    0.380493
| 28>   H     -1.218492   -0.037605    0.635046
| 29>   O     -4.306914    2.192235    0.312235
| 30>   H     -3.505500    2.694460    0.039322
| 31>   H     -3.907050    1.342788    0.517072
| 32>   O      0.373461   -1.343542    1.125590
| 33>   H      0.638374   -0.472270    0.721358
| 34>   H      0.536794   -1.221103    2.063221
| 35> * 
| 36> 
| 37>                          ****END OF INPUT****
================================================================================

                     *******************************
                     * Energy+Gradient Calculation *
                     *******************************

---------------------------------
CARTESIAN COORDINATES (ANGSTROEM)
---------------------------------
  C     -0.781619    2.941696   -0.355449
  C     -0.488224    1.600086    0.048194
  C      0.390157    3.821511   -0.737226
  H      0.415675    4.707737   -0.083181
  H      0.257049    4.185181   -1.768394
  H      1.342258    3.284935   -0.659930
  O     -1.957549    3.424569   -0.408821
  O      0.666084    1.085673    0.121898
  O     -1.576054    0.826243    0.380493
  H     -1.218492   -0.037605    0.635046
  O     -4.306914    2.192235    0.312235
  H     -3.505500    2.694460    0.039322
  H     -3.907050    1.342788    0.517072
  O      0.373461   -1.343542    1.125590
  H      0.638374   -0.472270    0.721358
  H      0.536794   -1.221103    2.063221

----------------------------
CARTESIAN COORDINATES (A.U.)
----------------------------
  NO LB      ZA    FRAG     MASS         X           Y           Z
   0 C     6.0000    0    12.011   -1.477046    5.559000   -0.671701
   1 C     6.0000    0    12.011   -0.922610    3.023724    0.091073
   2 C     6.0000    0    12.011    0.737290    7.221609   -1.393155
   3 H     1.0000    0     1.008    0.785512    8.896334   -0.157189
   4 H     1.0000    0     1.008    0.485752    7.908846   -3.341780
   5 H     1.0000    0     1.008    2.536500    6.207628   -1.247087
   6 O     8.0000    0    15.999   -3.699232    6.471498   -0.772560
   7 O     8.0000    0    15.999    1.258716    2.051625    0.230354
   8 O     8.0000    0    15.999   -2.978310    1.561373    0.719028
   9 H     1.0000    0     1.008   -2.302616   -0.071063    1.200063
  10 O     8.0000    0    15.999   -8.138888    4.142724    0.590039
  11 H     1.0000    0     1.008   -6.624435    5.091791    0.074308
  12 H     1.0000    0     1.008   -7.383254    2.537502    0.977124
  13 O     8.0000    0    15.999    0.705739   -2.538926    2.127057
  14 H     1.0000    0     1.008    1.206352   -0.892461    1.363169
  15 H     1.0000    0     1.008    1.014394   -2.307550    3.898923

--------------------------------
INTERNAL COORDINATES (ANGSTROEM)
--------------------------------
 C      0   0   0     0.000000000000     0.00000000     0.00000000
 C      1   0   0     1.431406891689     0.00000000     0.00000000
 C      1   2   0     1.514228221283   117.19785668     0.00000000
 H      3   1   2     1.101736154179   109.61056668   239.25063695
 H      3   1   2     1.101490377982   109.53304611   122.09547511
 H      3   1   2     1.095620732550   111.72358446     0.66821795
 O      1   2   3     1.272331037668   123.84710402   180.00274798
 O      2   1   3     1.265890979922   125.74597018     0.44164539
 O      2   1   3     1.375728797020   115.67379381   180.36858719
 H      9   2   1     0.968958812725   105.85126533   180.46714037
 O      7   1   2     2.749197109324   127.49512707     3.12902235
 H     11   7   1     0.984365712319     4.32512410   177.20472380
 H     11   7   1     0.960942048655    95.54069632   356.01147104
 O     10   9   2     2.116700077506   152.68007369    10.32597382
 H     14  10   9     0.996341962068    64.30535248   346.93230554
 H     14  10   9     0.959594117203   106.00595599    84.89848052

---------------------------
INTERNAL COORDINATES (A.U.)
---------------------------
 C      0   0   0     0.000000000000     0.00000000     0.00000000
 C      1   0   0     2.704967011499     0.00000000     0.00000000
 C      1   2   0     2.861476642480   117.19785668     0.00000000
 H      3   1   2     2.081979603238   109.61056668   239.25063695
 H      3   1   2     2.081515153536   109.53304611   122.09547511
 H      3   1   2     2.070423131165   111.72358446     0.66821795
 O      1   2   3     2.404357212880   123.84710402   180.00274798
 O      2   1   3     2.392187267455   125.74597018     0.44164539
 O      2   1   3     2.599750660917   115.67379381   180.36858719
 H      9   2   1     1.831066791099   105.85126533   180.46714037
 O      7   1   2     5.195229624791   127.49512707     3.12902235
 H     11   7   1     1.860181611906     4.32512410   177.20472380
 H     11   7   1     1.815917302528    95.54069632   356.01147104
 O     10   9   2     3.999983454136   152.68007369    10.32597382
 H     14  10   9     1.882813444042    64.30535248   346.93230554
 H     14  10   9     1.813370081236   106.00595599    84.89848052

---------------------
BASIS SET INFORMATION
---------------------
There are 3 groups of distinct atoms

 Group   1 Type C   : 18s5p2d contracted to 4s3p2d pattern {8811/311/11}
 Group   2 Type H   : 5s2p contracted to 3s2p pattern {311/11}
 Group   3 Type O   : 18s5p2d contracted to 4s3p2d pattern {8811/311/11}

Atom   0C    basis set group =>   1
Atom   1C    basis set group =>   1
Atom   2C    basis set group =>   1
Atom   3H    basis set group =>   2
Atom   4H    basis set group =>   2
Atom   5H    basis set group =>   2
Atom   6O    basis set group =>   3
Atom   7O    basis set group =>   3
Atom   8O    basis set group =>   3
Atom   9H    basis set group =>   2
Atom  10O    basis set group =>   3
Atom  11H    basis set group =>   2
Atom  12H    basis set group =>   2
Atom  13O    basis set group =>   3
Atom  14H    basis set group =>   2
Atom  15H    basis set group =>   2


           ************************************************************
           *        Program running with 8 parallel MPI-processes     *
           *              working on a common directory               *
           ************************************************************
------------------------------------------------------------------------------
                             ORCA STARTUP CALCULATIONS
------------------------------------------------------------------------------
------------------------------------------------------------------------------
                   ___                                                        
                  /   \      - P O W E R E D   B Y -                         
                 /     \                                                     
                 |  |  |   _    _      __       _____    __    __             
                 |  |  |  | |  | |    /  \     |  _  \  |  |  /  |          
                  \  \/   | |  | |   /    \    | | | |  |  | /  /          
                 / \  \   | |__| |  /  /\  \   | |_| |  |  |/  /          
                |  |  |   |  __  | /  /__\  \  |    /   |      \           
                |  |  |   | |  | | |   __   |  |    \   |  |\   \          
                \     /   | |  | | |  |  |  |  | |\  \  |  | \   \       
                 \___/    |_|  |_| |__|  |__|  |_| \__\ |__|  \__/        
                                                                              
                      - O R C A' S   B I G   F R I E N D -                    
                                      &                                       
                       - I N T E G R A L  F E E D E R -                       
                                                                              
 v1 FN, 2020, v2 2021, v3 2022-2024                                           
------------------------------------------------------------------------------


----------------------
SHARK INTEGRAL PACKAGE
----------------------

Number of atoms                             ...     16
Number of basis functions                   ...    304
Number of shells                            ...    160
Maximum angular momentum                    ...      2
Integral batch strategy                     ... SHARK/LIBINT Hybrid
RI-J (if used) integral strategy            ... SPLIT-RIJ (Revised 2003 algorithm where possible)
Printlevel                                  ...      1
Contraction scheme used                     ... PARTIAL GENERAL contraction
Prescreening option                         ... SCHWARTZ
   Thresh                                   ... 2.500e-11
   Tcut                                     ... 2.500e-12
   Tpresel                                  ... 2.500e-12 
Coulomb Range Separation                    ... NOT USED
Exchange Range Separation                   ... Long Range
   Mu parameter                             ... 2.000e-01
   Scaling (regular/separated)              ... 2.220e-01 7.780e-01
Robust (split-)RI terms used:
  metric    (central integrals)             ... YES
  density   (r.h.s.  integrals)             ... YES
  potential (l.h.s.  integrals)             ... YES
Multipole approximations                    ... NOT USED
Finite Nucleus Model                        ... NOT USED
CABS basis                                  ... NOT available
Auxiliary Coulomb fitting basis             ... NOT available
Auxiliary J/K fitting basis                 ... NOT available
Auxiliary Correlation fitting basis         ... NOT available
Auxiliary 'external' fitting basis          ... NOT available

Checking pre-screening integrals            ... done (  0.0 sec) Dimension = 160
Save PGC pre-screening integrals            ... done (  0.0 sec) Dimension = 160
Calculate PGC overlap integrals             ... done (  0.0 sec) Dimension = 112
Calculating pre-screening integrals (ORCA)  ... done (  0.1 sec) Dimension = 112
Shell pair information
Shell pair cut-off parameter TPreSel        ...   2.5e-12
Total number of shell pairs                 ...     12880
Shell pairs after pre-screening             ...     10263
Total number of primitive shell pairs       ...     18576
Primitive shell pairs kept                  ...     13469
          la=0 lb=0:   3700 shell pairs
          la=1 lb=0:   3641 shell pairs
          la=1 lb=1:    785 shell pairs
          la=2 lb=0:   1393 shell pairs
          la=2 lb=1:    613 shell pairs
          la=2 lb=2:    131 shell pairs

Checking whether 4 symmetric matrices of dimension 304 fit in memory
:Max Core in MB      =   8000.00
 MB in use           =     12.48
 MB left             =   7987.52
 MB needed           =      1.41
 Data fit in memory  = YES
Calculating Nuclear repulsion               ... done (  0.0 sec) ENN=    387.608722165145 Eh

Diagonalization of the overlap matrix:
Smallest eigenvalue                        ... 1.770e-05
Time for diagonalization                   ...    0.062 sec
Threshold for overlap eigenvalues          ... 1.000e-07
Number of eigenvalues below threshold      ... 0
Time for construction of square roots      ...    0.005 sec
Total time needed                          ...    0.069 sec

-------------------
DFT GRID GENERATION
-------------------

General Integration Accuracy     IntAcc      ... 4.388
Radial Grid Type                 RadialGrid  ... OptM3 with GC (2021)
Angular Grid (max. ang.)         AngularGrid ... 4 (Lebedev-302)
Angular grid pruning method      GridPruning ... 4 (adaptive)
Weight generation scheme         WeightScheme... mBecke (2022)
Basis function cutoff            BFCut       ... 1.0000e-11
Integration weight cutoff        WCut        ... 1.0000e-14
Partially contracted basis set               ... off
Rotationally invariant grid construction     ... off
Angular grids for H and He will be reduced by one unit
Diffuse basis detected: some atoms will have their outermost
                        angular grid increased by 1.

Total number of grid points                  ...    78545
Total number of batches                      ...     1235
Average number of points per batch           ...       63
Average number of grid points per atom       ...     4909

---------------------
SHARK GRID GENERATION
---------------------

General Integration Accuracy     IntAcc      ... 4.388
Radial Grid Type                 RadialGrid  ... OptM3 with GC (2021)
Angular Grid (max. ang.)         AngularGrid ... 4 (Lebedev-302)
Angular grid pruning method      GridPruning ... 4 (adaptive)
Weight generation scheme         WeightScheme... mBecke (2022)
Basis function cutoff            BFCut       ... 1.0000e-11
Integration weight cutoff        WCut        ... 1.0000e-14
Partially contracted basis set               ... off
Rotationally invariant grid construction     ... off
Angular grids for H and He will be reduced by one unit
Diffuse basis detected: some atoms will have their outermost
                        angular grid increased by 1.
Steep s-basis detected: some atoms will have their radial
                        grid points doubled.

Total number of grid points                  ...   129921
Total number of batches                      ...     2037
Average number of points per batch           ...       63
Average number of grid points per atom       ...     8120
Grids setup in   2.7 sec
Initializing property integral containers    ... done (  0.0 sec)

SHARK setup successfully completed in   3.2 seconds

Maximum memory used throughout the entire STARTUP-calculation: 38.3 MB


           ************************************************************
           *        Program running with 8 parallel MPI-processes     *
           *              working on a common directory               *
           ************************************************************
-------------------------------------------------------------------------------
                                 ORCA GUESS
                   Start orbitals & Density for SCF / CASSCF
-------------------------------------------------------------------------------

------------
SCF SETTINGS
------------
Hamiltonian:
 Density Functional     Method          .... DFT(GTOs)
  Functional kind                       .... Exchange-Correlation
  Functional name                       .... wB97X-D range-separated functional
  Functional family                     .... Hybrid GGA
  Functional refs                              
    [ 0] J.-D. Chai and M. Head-Gordon.,  Phys. Chem. Chem. Phys. 10, 6615-6620 (2008), doi: 10.1039/B810189B
  Fraction of HF Exchange (short range) .... 0.2220
  Fraction of HF Exchange ( int64 range )  .... 1.0000
  Range separation parameter mu         .... 0.2000
  Functional external parameters        .... 18
    Parameter  0 _cx0       =  7.779640e-01 : u^0 coefficient for exchange
    Parameter  1 _cx1       =  6.611600e-01 : u^1 coefficient for exchange
    Parameter  2 _cx2       =  5.745410e-01 : u^2 coefficient for exchange
    Parameter  3 _cx3       = -5.256710e+00 : u^3 coefficient for exchange
    Parameter  4 _cx4       =  1.163860e+01 : u^4 coefficient for exchange
    Parameter  5 _css0      =  1.000000e+00 : u^0 coefficient for same-spin correlation
    Parameter  6 _css1      = -6.905390e+00 : u^1 coefficient for same-spin correlation
    Parameter  7 _css2      =  3.133430e+01 : u^2 coefficient for same-spin correlation
    Parameter  8 _css3      = -5.105330e+01 : u^3 coefficient for same-spin correlation
    Parameter  9 _css4      =  2.644230e+01 : u^4 coefficient for same-spin correlation
    Parameter 10 _cos0      =  1.000000e+00 : u^0 coefficient for opposite-spin correlation
    Parameter 11 _cos1      =  1.794130e+00 : u^1 coefficient for opposite-spin correlation
    Parameter 12 _cos2      = -1.204770e+01 : u^2 coefficient for opposite-spin correlation
    Parameter 13 _cos3      =  1.408470e+01 : u^3 coefficient for opposite-spin correlation
    Parameter 14 _cos4      = -8.508090e+00 : u^4 coefficient for opposite-spin correlation
    Parameter 15 _alpha     =  1.000000e+00 : fraction of HF exchange
    Parameter 16 _beta      = -7.779640e-01 : fraction of short-range exchange
    Parameter 17 _omega     =  2.000000e-01 : range-separation constant
 Long-range corrected/Screened/Range-Separated Hybrid DFT is turned on
   Amount of maximum screened exact exchange              ....  0.777964
   Range separation parameter mu (erf(mu*r12)/r12)        ....  0.200000


General Settings:
 Integral files         IntName         .... s1_freq_2_wat_non
 Hartree-Fock type      HFTyp           .... RHF
 Total Charge           Charge          ....    0
 Multiplicity           Mult            ....    1
 Number of Electrons    NEL             ....   66
 Basis Dimension        Dim             ....  256
 Nuclear Repulsion      ENuc            ....    387.6087221651 Eh

Convergence Acceleration:
 AO-DIIS                CNVDIIS         .... on
   Start iteration      DIISMaxIt       ....    12
   Startup error        DIISStart       ....  0.200000
   # of expansion vecs  DIISMaxEq       ....     5
   Bias factor          DIISBfac        ....   1.050
   Max. coefficient     DIISMaxC        ....  10.000
 MO-DIIS                CNVKDIIS        .... off
 Trust-Rad. Augm. Hess. CNVTRAH         .... auto
   Auto Start mean grad. ratio tolernc. ....  1.125000
   Auto Start start iteration           ....    50
   Auto Start num. interpolation iter.  ....    10
   Max. Number of Micro iterations      ....    24
   Max. Number of Macro iterations      .... Maxiter - #DIIS iter
   Number of Davidson start vectors     ....     2
   Converg. threshold    (grad. norm)   ....   1.000e-05
   Grad. Scal. Fac. for Micro threshold ....   0.100
   Minimum threshold for Micro iter.    ....   1.000e-02
   NR start threshold (gradient norm)   ....   1.000e-04
   Initial trust radius                 ....   0.400
   Minimum AH scaling param. (alpha)    ....   1.000
   Maximum AH scaling param. (alpha)    .... 1000.000
   Quad. conv. algorithm                .... NR
   White noise on init. David. guess    .... on
   Maximum white noise                  ....   0.010
   Pseudo random numbers                .... off
   Inactive MOs                         .... canonical
   Orbital update algorithm             .... Taylor
   Preconditioner                       .... Diag
   Full preconditioner red. dimension   ....   250
 SOSCF                 CNVSOSCF           .... on
   Start iteration     SOSCFMaxIt         ....   150
   Startup grad/error  SOSCFStart         ....  0.003300
   Hessian update      SOSCFHessUp        .... L-BFGS
   Autom. constraints  SOSCFAutoConstrain .... off
 Level Shifting         CNVShift        .... on
   Level shift para.    LevelShift      ....    0.2500
   Turn off err/grad.   ShiftErr        ....    0.0010
 Zerner damping         CNVZerner       .... off
 Static damping         CNVDamp         .... on
   Fraction old density DampFac         ....    0.7000
   Max. Damping (<1)    DampMax         ....    0.9800
   Min. Damping (>=0)   DampMin         ....    0.0000
   Turn off err/grad.   DampErr         ....    0.1000

SCF Procedure:
 Maximum # iterations   MaxIter         ....   125
 SCF integral mode      SCFMode         .... Direct
   Integral package                     .... SHARK and LIBINT hybrid scheme
 Reset frequency        DirectResetFreq ....    20
 Integral Threshold     Thresh          ....  2.500e-11 Eh
 Primitive CutOff       TCut            ....  2.500e-12 Eh

Convergence Tolerance:
 Convergence Check Mode ConvCheckMode   .... Total+1el-Energy
 Convergence forced     ConvForced      .... 1
 Energy Change          TolE            ....  1.000e-08 Eh
 1-El. energy change                    ....  1.000e-05 Eh
 Orbital Gradient       TolG            ....  1.000e-05
 Orbital Rotation angle TolX            ....  1.000e-05
 DIIS Error             TolErr          ....  5.000e-07

------------------------------
INITIAL GUESS: MODEL POTENTIAL
------------------------------
Loading Hartree-Fock densities                     ... done
Calculating cut-offs                               ... done
Initializing the effective Hamiltonian             ... done
Setting up the integral package (SHARK)            ... done
Starting the Coulomb interaction                   ... done (   0.1 sec)
Making the grid                                    ... done (   0.2 sec)
Mapping shells                                     ... done
Starting the XC term evaluation                    ... done (   0.1 sec)
  promolecular density results
     # of electrons  =     65.995031300
     EX+EC           =    -42.403811982
Transforming the Hamiltonian                       ... done (   0.0 sec)
Diagonalizing the Hamiltonian                      ... done (   0.0 sec)
Back transforming the eigenvectors                 ... done (   0.0 sec)
Now organizing SCF variables                       ... done
                      ------------------
                      INITIAL GUESS DONE (   0.6 sec)
                      ------------------
             **** ENERGY FILE WAS UPDATED (s1_freq_2_wat_non.en.tmp) ****
Finished Guess after   1.3 sec
Maximum memory used throughout the entire GUESS-calculation: 16.1 MB


           ************************************************************
           *        Program running with 8 parallel MPI-processes     *
           *              working on a common directory               *
           ************************************************************

-------------------------------------------------------------------------------------------
                                      ORCA LEAN-SCF
                              memory conserving SCF solver
-------------------------------------------------------------------------------------------

----------------------------------------D-I-I-S--------------------------------------------
Iteration    Energy (Eh)           Delta-E    RMSDP     MaxDP     DIISErr   Damp  Time(sec)
-------------------------------------------------------------------------------------------
               ***  Starting incremental Fock matrix formation  ***
    1    -495.0544995479521049     0.00e+00  7.97e-03  1.66e-01  9.85e-02  0.700  12.2
    2    -495.0982189487166352    -4.37e-02  6.05e-03  1.22e-01  6.16e-02  0.700  11.4
                               ***Turning on AO-DIIS***
    3    -495.1221776556479881    -2.40e-02  3.35e-03  4.48e-02  4.14e-02  0.700  10.9
    4    -495.1369876301414479    -1.48e-02  7.79e-03  1.05e-01  2.90e-02  0.000  12.0
                              *** Initializing SOSCF ***
---------------------------------------S-O-S-C-F--------------------------------------
Iteration    Energy (Eh)           Delta-E    RMSDP     MaxDP     MaxGrad    Time(sec)
--------------------------------------------------------------------------------------
    5    -495.1701230656034340    -3.31e-02  9.56e-04  1.74e-02  2.42e-03    11.4
               *** Restarting incremental Fock matrix formation ***
    6    -495.1702744249744228    -1.51e-04  5.28e-04  1.24e-02  8.56e-04    12.7
    7    -495.1703110103304653    -3.66e-05  4.00e-04  9.16e-03  7.19e-04    11.1
    8    -495.1703220345754062    -1.10e-05  1.65e-04  3.21e-03  3.12e-04    10.1
    9    -495.1703257754758170    -3.74e-06  5.82e-05  1.24e-03  1.13e-04    10.5
   10    -495.1703261259598321    -3.50e-07  2.45e-05  4.70e-04  7.94e-05    10.2
   11    -495.1703263074824690    -1.82e-07  9.94e-06  2.07e-04  1.83e-05     9.0
   12    -495.1703263163485644    -8.87e-09  4.69e-06  7.74e-05  1.35e-05     8.7
                 **** Energy Check signals convergence ****

               *****************************************************
               *                     SUCCESS                       *
               *           SCF CONVERGED AFTER  12 CYCLES          *
               *****************************************************

             **** ENERGY FILE WAS UPDATED (s1_freq_2_wat_non.en.tmp) ****

----------------
TOTAL SCF ENERGY
----------------

Total Energy       :       -495.17032631973245 Eh          -13474.26960 eV

Components:
Nuclear Repulsion  :        387.60872216514474 Eh           10547.36955 eV
Electronic Energy  :       -882.77904848487719 Eh          -24021.63915 eV
One Electron Energy:      -1446.18070696348968 Eh          -39352.57768 eV
Two Electron Energy:        563.40165847861249 Eh           15330.93854 eV

Virial components:
Potential Energy   :       -987.11686705561851 Eh          -26860.81553 eV
Kinetic Energy     :        491.94654073588612 Eh           13386.54593 eV
Virial Ratio       :          2.00655312176608

DFT components:
N(Alpha)           :       33.000073753624 electrons
N(Beta)            :       33.000073753624 electrons
N(Total)           :       66.000147507248 electrons
E(XC)              :      -43.153443839960 Eh       

---------------
SCF CONVERGENCE
---------------

  Last Energy change         ...    8.8661e-09  Tolerance :   1.0000e-08
  Last MAX-Density change    ...    7.7407e-05  Tolerance :   1.0000e-07
  Last RMS-Density change    ...    4.6950e-06  Tolerance :   5.0000e-09
  Last DIIS Error            ...    2.4230e-03  Tolerance :   5.0000e-07
  Last Orbital Gradient      ...    1.3466e-05  Tolerance :   1.0000e-05
  Last Orbital Rotation      ...    1.6430e-05  Tolerance :   1.0000e-05


----------------
ORBITAL ENERGIES
----------------

  NO   OCC          E(Eh)            E(eV) 
   0   2.0000     -19.370660      -527.1025 
   1   2.0000     -19.341237      -526.3018 
   2   2.0000     -19.340403      -526.2791 
   3   2.0000     -19.282184      -524.6949 
   4   2.0000     -19.235582      -523.4268 
   5   2.0000     -10.508374      -285.9474 
   6   2.0000     -10.465669      -284.7853 
   7   2.0000     -10.344248      -281.4813 
   8   2.0000      -1.264926       -34.4204 
   9   2.0000      -1.192439       -32.4479 
  10   2.0000      -1.170855       -31.8606 
  11   2.0000      -1.120187       -30.4818 
  12   2.0000      -1.076309       -29.2879 
  13   2.0000      -0.919492       -25.0207 
  14   2.0000      -0.843848       -22.9623 
  15   2.0000      -0.712193       -19.3798 
  16   2.0000      -0.658034       -17.9060 
  17   2.0000      -0.642976       -17.4963 
  18   2.0000      -0.626675       -17.0527 
  19   2.0000      -0.611406       -16.6372 
  20   2.0000      -0.574272       -15.6267 
  21   2.0000      -0.567304       -15.4371 
  22   2.0000      -0.552612       -15.0373 
  23   2.0000      -0.546846       -14.8804 
  24   2.0000      -0.521637       -14.1945 
  25   2.0000      -0.494438       -13.4544 
  26   2.0000      -0.485275       -13.2050 
  27   2.0000      -0.465225       -12.6594 
  28   2.0000      -0.462288       -12.5795 
  29   2.0000      -0.434653       -11.8275 
  30   2.0000      -0.416019       -11.3205 
  31   2.0000      -0.399826       -10.8798 
  32   2.0000      -0.366554        -9.9744 
  33   0.0000      -0.092499        -2.5170 
  34   0.0000       0.023777         0.6470 
  35   0.0000       0.035949         0.9782 
  36   0.0000       0.049453         1.3457 
  37   0.0000       0.052509         1.4289 
  38   0.0000       0.060527         1.6470 
  39   0.0000       0.073615         2.0032 
  40   0.0000       0.079390         2.1603 
  41   0.0000       0.086253         2.3471 
  42   0.0000       0.089685         2.4405 
  43   0.0000       0.103208         2.8084 
*Only the first 10 virtual orbitals were printed.

                    ********************************
                    * MULLIKEN POPULATION ANALYSIS *
                    ********************************

-----------------------
MULLIKEN ATOMIC CHARGES
-----------------------
   0 C :    0.078628
   1 C :    1.119831
   2 C :    0.548422
   3 H :   -0.003792
   4 H :   -0.008129
   5 H :   -0.260722
   6 O :   -0.626526
   7 O :   -0.633367
   8 O :   -0.514635
   9 H :    0.196452
  10 O :   -0.283415
  11 H :    0.191960
  12 H :    0.122858
  13 O :   -0.312571
  14 H :    0.264387
  15 H :    0.120617
Sum of atomic charges:    0.0000000

--------------------------------
MULLIKEN REDUCED ORBITAL CHARGES
--------------------------------
  0 C s       :     3.278681  s :     3.278681
      pz      :     0.718657  p :     2.383615
      px      :     0.811092
      py      :     0.853866
      dz2     :     0.028024  d :     0.259076
      dxz     :     0.026995
      dyz     :     0.039352
      dx2y2   :     0.082669
      dxy     :     0.082036

  1 C s       :     2.962370  s :     2.962370
      pz      :     0.674212  p :     1.715155
      px      :     0.562348
      py      :     0.478595
      dz2     :     0.001159  d :     0.202643
      dxz     :     0.047409
      dyz     :     0.024719
      dx2y2   :     0.118102
      dxy     :     0.011255

  2 C s       :     3.007665  s :     3.007665
      pz      :     0.886140  p :     2.492562
      px      :     0.649417
      py      :     0.957005
      dz2     :    -0.012724  d :    -0.048649
      dxz     :     0.001274
      dyz     :    -0.016969
      dx2y2   :     0.003361
      dxy     :    -0.023591

  3 H s       :     1.009387  s :     1.009387
      pz      :    -0.001099  p :    -0.005595
      px      :    -0.000726
      py      :    -0.003770

  4 H s       :     1.014748  s :     1.014748
      pz      :     0.012148  p :    -0.006619
      px      :     0.001997
      py      :    -0.020764

  5 H s       :     1.244565  s :     1.244565
      pz      :    -0.008025  p :     0.016157
      px      :     0.000199
      py      :     0.023982

  6 O s       :     4.104290  s :     4.104290
      pz      :     1.376055  p :     4.486297
      px      :     1.371264
      py      :     1.738978
      dz2     :     0.001558  d :     0.035939
      dxz     :     0.013716
      dyz     :     0.003429
      dx2y2   :     0.008247
      dxy     :     0.008989

  7 O s       :     4.064531  s :     4.064531
      pz      :     1.465222  p :     4.531466
      px      :     1.357761
      py      :     1.708483
      dz2     :     0.002535  d :     0.037370
      dxz     :     0.014484
      dyz     :     0.002345
      dx2y2   :     0.007904
      dxy     :     0.010102

  8 O s       :     4.001217  s :     4.001217
      pz      :     1.688944  p :     4.496083
      px      :     1.536905
      py      :     1.270234
      dz2     :     0.002099  d :     0.017334
      dxz     :     0.009830
      dyz     :     0.000486
      dx2y2   :     0.000368
      dxy     :     0.004551

  9 H s       :     0.710827  s :     0.710827
      pz      :     0.026057  p :     0.092721
      px      :     0.023842
      py      :     0.042822

 10 O s       :     3.795996  s :     3.795996
      pz      :     1.821789  p :     4.495509
      px      :     1.457457
      py      :     1.216263
      dz2     :    -0.000999  d :    -0.008090
      dxz     :     0.001401
      dyz     :    -0.000901
      dx2y2   :    -0.001881
      dxy     :    -0.005710

 11 H s       :     0.745909  s :     0.745909
      pz      :     0.040743  p :     0.062132
      px      :     0.010514
      py      :     0.010875

 12 H s       :     0.777651  s :     0.777651
      pz      :     0.044217  p :     0.099491
      px      :     0.034569
      py      :     0.020705

 13 O s       :     3.779975  s :     3.779975
      pz      :     1.221435  p :     4.539210
      px      :     1.838326
      py      :     1.479450
      dz2     :    -0.007601  d :    -0.006615
      dxz     :    -0.000555
      dyz     :    -0.000968
      dx2y2   :     0.000115
      dxy     :     0.002394

 14 H s       :     0.667282  s :     0.667282
      pz      :     0.025534  p :     0.068331
      px      :     0.024956
      py      :     0.017841

 15 H s       :     0.767508  s :     0.767508
      pz      :     0.037276  p :     0.111874
      px      :     0.042643
      py      :     0.031955



                     *******************************
                     * LOEWDIN POPULATION ANALYSIS *
                     *******************************

----------------------
LOEWDIN ATOMIC CHARGES
----------------------
   0 C :   -0.234872
   1 C :   -0.267207
   2 C :    0.199159
   3 H :    0.015006
   4 H :    0.014928
   5 H :   -0.014754
   6 O :    0.176824
   7 O :    0.145945
   8 O :    0.296514
   9 H :   -0.076707
  10 O :    0.195766
  11 H :   -0.217257
  12 H :   -0.144508
  13 O :    0.224948
  14 H :   -0.214999
  15 H :   -0.098789

-------------------------------
LOEWDIN REDUCED ORBITAL CHARGES
-------------------------------
  0 C s       :     2.602141  s :     2.602141
      pz      :     0.637583  p :     2.481025
      px      :     0.930852
      py      :     0.912591
      dz2     :     0.111654  d :     1.151706
      dxz     :     0.185973
      dyz     :     0.121704
      dx2y2   :     0.364283
      dxy     :     0.368091

  1 C s       :     2.576026  s :     2.576026
      pz      :     0.645990  p :     2.403115
      px      :     0.872204
      py      :     0.884921
      dz2     :     0.123239  d :     1.288066
      dxz     :     0.248867
      dyz     :     0.123292
      dx2y2   :     0.396951
      dxy     :     0.395717

  2 C s       :     2.606323  s :     2.606323
      pz      :     0.942041  p :     2.797791
      px      :     0.929803
      py      :     0.925946
      dz2     :     0.077083  d :     0.396727
      dxz     :     0.044493
      dyz     :     0.071420
      dx2y2   :     0.098098
      dxy     :     0.105634

  3 H s       :     0.713324  s :     0.713324
      pz      :     0.096502  p :     0.271669
      px      :     0.066208
      py      :     0.108960

  4 H s       :     0.713310  s :     0.713310
      pz      :     0.129283  p :     0.271762
      px      :     0.067308
      py      :     0.075170

  5 H s       :     0.716856  s :     0.716856
      pz      :     0.075904  p :     0.297898
      px      :     0.116208
      py      :     0.105786

  6 O s       :     3.368646  s :     3.368646
      pz      :     1.247113  p :     4.273838
      px      :     1.433297
      py      :     1.593428
      dz2     :     0.021333  d :     0.180692
      dxz     :     0.029641
      dyz     :     0.006058
      dx2y2   :     0.062065
      dxy     :     0.061595

  7 O s       :     3.347153  s :     3.347153
      pz      :     1.337145  p :     4.329264
      px      :     1.449900
      py      :     1.542218
      dz2     :     0.020284  d :     0.177638
      dxz     :     0.029686
      dyz     :     0.011924
      dx2y2   :     0.059280
      dxy     :     0.056465

  8 O s       :     3.225324  s :     3.225324
      pz      :     1.518974  p :     4.305118
      px      :     1.484188
      py      :     1.301955
      dz2     :     0.020378  d :     0.173044
      dxz     :     0.025383
      dyz     :     0.017911
      dx2y2   :     0.051675
      dxy     :     0.057698

  9 H s       :     0.585248  s :     0.585248
      pz      :     0.119727  p :     0.491459
      px      :     0.152679
      py      :     0.219054

 10 O s       :     3.263068  s :     3.263068
      pz      :     1.663827  p :     4.487833
      px      :     1.493058
      py      :     1.330947
      dz2     :     0.007308  d :     0.053333
      dxz     :     0.005091
      dyz     :     0.003393
      dx2y2   :     0.011871
      dxy     :     0.025669

 11 H s       :     0.606431  s :     0.606431
      pz      :     0.160652  p :     0.610826
      px      :     0.292204
      py      :     0.157969

 12 H s       :     0.635634  s :     0.635634
      pz      :     0.148039  p :     0.508874
      px      :     0.169379
      py      :     0.191456

 13 O s       :     3.253807  s :     3.253807
      pz      :     1.324437  p :     4.465917
      px      :     1.648956
      py      :     1.492524
      dz2     :     0.025377  d :     0.055327
      dxz     :     0.003171
      dyz     :     0.011477
      dx2y2   :     0.009974
      dxy     :     0.005329

 14 H s       :     0.585262  s :     0.585262
      pz      :     0.141563  p :     0.629737
      px      :     0.153980
      py      :     0.334194

 15 H s       :     0.633746  s :     0.633746
      pz      :     0.207275  p :     0.465043
      px      :     0.138717
      py      :     0.119051



                      *****************************
                      * MAYER POPULATION ANALYSIS *
                      *****************************

  NA   - Mulliken gross atomic population
  ZA   - Total nuclear charge
  QA   - Mulliken gross atomic charge
  VA   - Mayer's total valence
  BVA  - Mayer's bonded valence
  FA   - Mayer's free valence

  ATOM       NA         ZA         QA         VA         BVA        FA
  0 C      5.9214     6.0000     0.0786     4.0786     4.0786     0.0000
  1 C      4.8802     6.0000     1.1198     2.2074     2.2074     0.0000
  2 C      5.4516     6.0000     0.5484     3.8186     3.8186    -0.0000
  3 H      1.0038     1.0000    -0.0038     0.8822     0.8822    -0.0000
  4 H      1.0081     1.0000    -0.0081     0.8781     0.8781    -0.0000
  5 H      1.2607     1.0000    -0.2607     0.8666     0.8666     0.0000
  6 O      8.6265     8.0000    -0.6265     1.6153     1.6153     0.0000
  7 O      8.6334     8.0000    -0.6334     1.7702     1.7702    -0.0000
  8 O      8.5146     8.0000    -0.5146     1.8448     1.8448    -0.0000
  9 H      0.8035     1.0000     0.1965     1.0579     1.0579    -0.0000
 10 O      8.2834     8.0000    -0.2834     1.9304     1.9304    -0.0000
 11 H      0.8080     1.0000     0.1920     0.9366     0.9366     0.0000
 12 H      0.8771     1.0000     0.1229     1.0082     1.0082    -0.0000
 13 O      8.3126     8.0000    -0.3126     2.0035     2.0035     0.0000
 14 H      0.7356     1.0000     0.2644     0.8967     0.8967     0.0000
 15 H      0.8794     1.0000     0.1206     1.0607     1.0607    -0.0000

  Mayer bond orders larger than 0.100000
B(  0-C ,  1-C ) :   0.4990 B(  0-C ,  2-C ) :   1.3760 B(  0-C ,  3-H ) :   0.1496 
B(  0-C ,  4-H ) :   0.1406 B(  0-C ,  5-H ) :   0.2758 B(  0-C ,  6-O ) :   1.5459 
B(  0-C ,  8-O ) :   0.1259 B(  1-C ,  2-C ) :  -0.1215 B(  1-C ,  5-H ) :  -0.1875 
B(  1-C ,  7-O ) :   1.5179 B(  1-C ,  8-O ) :   0.6119 B(  2-C ,  3-H ) :   0.8544 
B(  2-C ,  4-H ) :   0.8605 B(  2-C ,  5-H ) :   0.8444 B(  7-O ,  8-O ) :   0.1337 
B(  8-O ,  9-H ) :   0.9306 B(  9-H , 13-O ) :   0.1222 B( 10-O , 11-H ) :   0.9138 
B( 10-O , 12-H ) :   1.0272 B( 13-O , 14-H ) :   0.8144 B( 13-O , 15-H ) :   1.0668 


-------
TIMINGS
-------

Total SCF time: 0 days 0 hours 2 min 19 sec 

Total time                  ....     139.399 sec
Sum of individual times     ....     130.913 sec  ( 93.9%)

SCF preparation             ....       0.691 sec  (  0.5%)
Fock matrix formation       ....     129.446 sec  ( 92.9%)
  Startup                   ....       0.017 sec  (  0.0% of F)
  Coulomb+Exchange Fock     ....     131.022 sec  (101.2% of F)
  XC integration            ....       6.595 sec  (  5.1% of F)
    XC Preparation          ....       0.000 sec  (  0.0% of XC)
    Basis function eval.    ....       1.484 sec  ( 22.5% of XC)
    Density eval.           ....       0.921 sec  ( 14.0% of XC)
    XC-Functional eval.     ....       0.421 sec  (  6.4% of XC)
    XC-Potential eval.      ....       1.606 sec  ( 24.3% of XC)
Diagonalization             ....       0.000 sec  (  0.0%)
Density matrix formation    ....       0.118 sec  (  0.1%)
Total Energy calculation    ....       0.040 sec  (  0.0%)
Population analysis         ....       0.031 sec  (  0.0%)
Orbital Transformation      ....       0.059 sec  (  0.0%)
Orbital Orthonormalization  ....       0.000 sec  (  0.0%)
DIIS solution               ....       0.230 sec  (  0.2%)
SOSCF solution              ....       0.293 sec  (  0.2%)
Finished LeanSCF after 139.4 sec

Maximum memory used throughout the entire LEANSCF-calculation: 18.3 MB


           ************************************************************
           *        Program running with 8 parallel MPI-processes     *
           *              working on a common directory               *
           ************************************************************

------------------------------------------------------------------------------
                         ORCA PROPERTY INTEGRAL CALCULATIONS
------------------------------------------------------------------------------

GBWName                                   ... s1_freq_2_wat_non.gbw
Number of atoms                           ...     16
Number of basis functions                 ...    304
Max core memory                           ...   8000 MB

Dipole integrals                          ... YES
Quadrupole integrals                      ...  NO
Linear momentum integrals                 ... YES
Angular momentum integrals                ... YES
Higher moments length integrals           ...  NO
Higher moments velocity integrals         ...  NO
Kinetic energy integrals                  ...  NO
GIAO right hand sides                     ...  NO
GIAO dipole derivative integrals          ...  NO
SOC integrals                             ...  NO
EPR diamagnetic integrals (GIAO)          ...  NO
EPR gauge integrals                       ...  NO
Field gradient integrals                  ...  NO (   0 nuclei)
Spin-dipole/Fermi contact integrals       ...  NO (   0 nuclei)
Contact density integrals                 ...  NO (   0 nuclei)
Nucleus-orbit integrals                   ...  NO (   0 nuclei)
Geometric perturbations                   ...  NO (  16 nuclei)

Choice of electric origin   ... Center of mass
Position of electric origin ... ( -1.9014,  3.2590,  0.2045) 
Choice of magnetic origin   ... GIAO
Position of magnetic origin ... (  0.0000,  0.0000,  0.0000) 

Calculating integrals                     ... Electric Dipole (Length)     done (  0.1 sec)
Calculating integrals                     ... Linear Momentum              done (  0.0 sec)
Calculating integrals                     ... Angular Momentum  (ElOri)    done (  0.0 sec)

Property integrals calculated in   0.2 sec

Maximum memory used throughout the entire PROPINT-calculation: 16.5 MB


           ************************************************************
           *        Program running with 8 parallel MPI-processes     *
           *              working on a common directory               *
           ************************************************************
------------------------------------------------------------------------------
                        ORCA TD-DFT/TDA CALCULATION
------------------------------------------------------------------------------

Input orbitals are from        ... s1_freq_2_wat_non.gbw
CI-vector output               ... s1_freq_2_wat_non.cis
Solver                         ... FN-2001
Tamm-Dancoff approximation     ... operative
CIS-Integral strategy          ... AO-integrals
Integral handling              ... AO integral Direct
Max. core memory used          ... 8000 MB
Reference state                ... RHF
Generation of triplets         ... off
Follow IRoot                   ... off
Number of operators            ... 1
Orbital ranges used for CIS calculation:
 Operator 0:  Orbitals   8... 32  to  33...255
XAS localization array:
 Operator 0:  Orbitals  -1... -1

-------------------
XC-INTEGRATION GRID
-------------------

General Integration Accuracy     IntAcc      ... 3.467
Radial Grid Type                 RadialGrid  ... OptM3 with GC (2021)
Angular Grid (max. ang.)         AngularGrid ... 1 (Lebedev-50)
Angular grid pruning method      GridPruning ... 4 (adaptive)
Weight generation scheme         WeightScheme... mBecke (2022)
Basis function cutoff            BFCut       ... 1.0000e-11
Integration weight cutoff        WCut        ... 1.0000e-14
Partially contracted basis set               ... off
Rotationally invariant grid construction     ... off
Angular grids for H and He will be reduced by one unit
Diffuse basis detected: some atoms will have their outermost
                        angular grid increased by 1.

Total number of grid points                  ...    11334
Total number of batches                      ...      185
Average number of points per batch           ...       61
Average number of grid points per atom       ...      708

---------------
TD-DFT XC SETUP
---------------

DFT calculation                         ... on
Name of the grid file                   ... s1_freq_2_wat_non.grid_cis.tmp
Functional (TD-DFT)
  Functional kind                       .... Exchange-Correlation
  Functional name                       .... wB97X-D range-separated functional
  Functional family                     .... Hybrid GGA
  Functional refs                              
    [ 0] J.-D. Chai and M. Head-Gordon.,  Phys. Chem. Chem. Phys. 10, 6615-6620 (2008), doi: 10.1039/B810189B
  Fraction of HF Exchange (short range) .... 0.2220
  Fraction of HF Exchange ( int64 range )  .... 1.0000
  Range separation parameter mu         .... 0.2000
  Functional external parameters        .... 18
    Parameter  0 _cx0       =  7.779640e-01 : u^0 coefficient for exchange
    Parameter  1 _cx1       =  6.611600e-01 : u^1 coefficient for exchange
    Parameter  2 _cx2       =  5.745410e-01 : u^2 coefficient for exchange
    Parameter  3 _cx3       = -5.256710e+00 : u^3 coefficient for exchange
    Parameter  4 _cx4       =  1.163860e+01 : u^4 coefficient for exchange
    Parameter  5 _css0      =  1.000000e+00 : u^0 coefficient for same-spin correlation
    Parameter  6 _css1      = -6.905390e+00 : u^1 coefficient for same-spin correlation
    Parameter  7 _css2      =  3.133430e+01 : u^2 coefficient for same-spin correlation
    Parameter  8 _css3      = -5.105330e+01 : u^3 coefficient for same-spin correlation
    Parameter  9 _css4      =  2.644230e+01 : u^4 coefficient for same-spin correlation
    Parameter 10 _cos0      =  1.000000e+00 : u^0 coefficient for opposite-spin correlation
    Parameter 11 _cos1      =  1.794130e+00 : u^1 coefficient for opposite-spin correlation
    Parameter 12 _cos2      = -1.204770e+01 : u^2 coefficient for opposite-spin correlation
    Parameter 13 _cos3      =  1.408470e+01 : u^3 coefficient for opposite-spin correlation
    Parameter 14 _cos4      = -8.508090e+00 : u^4 coefficient for opposite-spin correlation
    Parameter 15 _alpha     =  1.000000e+00 : fraction of HF exchange
    Parameter 16 _beta      = -7.779640e-01 : fraction of short-range exchange
    Parameter 17 _omega     =  2.000000e-01 : range-separation constant
Hybrid DFT                              ... on
   Exchange mixing (TD-DFT)             ...  0.222
   GGA exch. scaling (TD-DFT)           ...  1.000
   GGA corr. scaling (TD-DFT)           ...  1.000
Range-Separated Exchange                ... on
   Range Range separation parameter mu  .... 0.200
   Max. amount of RS exchange (TD-DFT)  ...  0.778

Building densities             ... done
Calculating rho(r) on the grid ... done
Building xc-kernel on the grid ... done
                    *** TD-DFT CALCULATION INITIALIZED ***

------------------------
DAVIDSON-DIAGONALIZATION
------------------------

Dimension of the eigenvalue problem            ...   5575
Number of roots to be determined               ...     10
Maximum size of the expansion space            ...    100
Maximum number of iterations                   ...    100
Convergence tolerance for the residual         ...    2.500e-07
Convergence tolerance for the energies         ...    2.500e-07
Orthogonality tolerance                        ...    1.000e-14
Level Shift                                    ...    0.000e+00
Constructing the preconditioner                ... o.k.
Building the initial guess                     ... o.k.
Number of trial vectors determined             ...    100


                       ****Iteration    0****
   Time for iteration     :  TOTAL=249.9 TRAFO=0.1 2-EL=247.8 XC=2.0
   Size of expansion space: 30
   Lowest Energy          :     0.110005467835
   Maximum Energy change  :     0.280412336212 (vector 9)
   Maximum residual norm  :     0.029284624923

                       ****Iteration    1****
   Time for iteration     :  TOTAL=62.2 TRAFO=0.0 2-EL=61.5 XC=0.8
   Size of expansion space: 40
   Lowest Energy          :     0.104199280881
   Maximum Energy change  :     0.025112873266 (vector 5)
   Maximum residual norm  :     0.003251685918

                       ****Iteration    2****
   Time for iteration     :  TOTAL=59.9 TRAFO=0.0 2-EL=59.1 XC=0.7
   Size of expansion space: 50
   Lowest Energy          :     0.103895109398
   Maximum Energy change  :     0.004516415216 (vector 7)
   Maximum residual norm  :     0.000444274685

                       ****Iteration    3****
   Time for iteration     :  TOTAL=63.7 TRAFO=0.0 2-EL=62.9 XC=0.8
   Size of expansion space: 60
   Lowest Energy          :     0.103881457838
   Maximum Energy change  :     0.000507111693 (vector 7)
   Maximum residual norm  :     0.000034677564

                       ****Iteration    4****
   Time for iteration     :  TOTAL=68.7 TRAFO=0.0 2-EL=67.8 XC=0.8
   Size of expansion space: 70
   Lowest Energy          :     0.103880904801
   Maximum Energy change  :     0.000046608984 (vector 7)
   Maximum residual norm  :     0.000003623930

                       ****Iteration    5****
   Time for iteration     :  TOTAL=68.7 TRAFO=0.0 2-EL=67.8 XC=0.8
   Size of expansion space: 80
   Lowest Energy          :     0.103880885247
   Maximum Energy change  :     0.000004832043 (vector 7)
   Maximum residual norm  :     0.000000323639

                       ****Iteration    6****
   Time for iteration     :  TOTAL=67.6 TRAFO=0.0 2-EL=66.8 XC=0.8
   Size of expansion space: 90
   Lowest Energy          :     0.103880884860
   Maximum Energy change  :     0.000000491629 (vector 7)
   Maximum residual norm  :     0.000000036833

      *** CONVERGENCE OF RESIDUAL NORM REACHED ***

Storing the converged CI vectors               ... s1_freq_2_wat_non.cis1

                 *** DAVIDSON DONE ***

Total time for solving the CIS problem:   642.104sec

------------------------------------
TD-DFT/TDA EXCITED STATES (SINGLETS)
------------------------------------

the weight of the individual excitations are printed if larger than 1.0e-02

STATE  1:  E=   0.103881 au      2.827 eV    22799.2 cm**-1 <S**2> =   0.000000 Mult 1
    27a ->  33a  :     0.018792 (c= -0.13708381)
    28a ->  33a  :     0.012321 (c=  0.11099944)
    30a ->  33a  :     0.025109 (c=  0.15845761)
    31a ->  33a  :     0.915199 (c=  0.95666058)

STATE  2:  E=   0.138209 au      3.761 eV    30333.3 cm**-1 <S**2> =   0.000000 Mult 1
    32a ->  33a  :     0.996548 (c= -0.99827257)

STATE  3:  E=   0.153205 au      4.169 eV    33624.7 cm**-1 <S**2> =   0.000000 Mult 1
    25a ->  33a  :     0.057291 (c=  0.23935538)
    27a ->  33a  :     0.114046 (c=  0.33770763)
    28a ->  33a  :     0.050864 (c= -0.22553091)
    29a ->  33a  :     0.677044 (c= -0.82282679)
    30a ->  33a  :     0.049002 (c= -0.22136336)
    31a ->  40a  :     0.011721 (c=  0.10826505)

STATE  4:  E=   0.190997 au      5.197 eV    41919.0 cm**-1 <S**2> =   0.000000 Mult 1
    29a ->  33a  :     0.061598 (c=  0.24819024)
    30a ->  33a  :     0.879114 (c= -0.93761073)
    31a ->  33a  :     0.029017 (c=  0.17034436)

STATE  5:  E=   0.221071 au      6.016 eV    48519.5 cm**-1 <S**2> =   0.000000 Mult 1
    25a ->  33a  :     0.010810 (c= -0.10396940)
    26a ->  33a  :     0.023320 (c=  0.15270939)
    27a ->  33a  :     0.013766 (c= -0.11732877)
    28a ->  33a  :     0.774863 (c=  0.88026314)
    29a ->  33a  :     0.106860 (c= -0.32689506)
    31a ->  33a  :     0.018007 (c= -0.13419114)

STATE  6:  E=   0.222391 au      6.052 eV    48809.2 cm**-1 <S**2> =   0.000000 Mult 1
    26a ->  33a  :     0.014583 (c= -0.12075853)
    27a ->  33a  :     0.760373 (c= -0.87199393)
    28a ->  33a  :     0.052732 (c= -0.22963391)
    29a ->  33a  :     0.094508 (c= -0.30742105)
    31a ->  33a  :     0.012186 (c= -0.11038816)

STATE  7:  E=   0.241833 au      6.581 eV    53076.2 cm**-1 <S**2> =   0.000000 Mult 1
    20a ->  33a  :     0.026535 (c=  0.16289613)
    23a ->  33a  :     0.069262 (c=  0.26317593)
    24a ->  33a  :     0.621472 (c=  0.78833504)
    25a ->  33a  :     0.213947 (c= -0.46254401)
    27a ->  33a  :     0.017952 (c=  0.13398367)

STATE  8:  E=   0.253557 au      6.900 eV    55649.3 cm**-1 <S**2> =   0.000000 Mult 1
    22a ->  33a  :     0.055369 (c= -0.23530684)
    26a ->  33a  :     0.839513 (c= -0.91624950)
    28a ->  33a  :     0.021298 (c=  0.14593956)

STATE  9:  E=   0.259385 au      7.058 eV    56928.5 cm**-1 <S**2> =   0.000000 Mult 1
    22a ->  33a  :     0.014267 (c=  0.11944543)
    23a ->  33a  :     0.227827 (c= -0.47731270)
    24a ->  33a  :     0.324713 (c=  0.56983609)
    25a ->  33a  :     0.350626 (c=  0.59213683)
    29a ->  33a  :     0.027250 (c=  0.16507496)

STATE 10:  E=   0.262641 au      7.147 eV    57643.1 cm**-1 <S**2> =   0.000000 Mult 1
    32a ->  34a  :     0.233055 (c= -0.48275720)
    32a ->  35a  :     0.081258 (c=  0.28505811)
    32a ->  36a  :     0.018002 (c= -0.13417128)
    32a ->  37a  :     0.262375 (c=  0.51222515)
    32a ->  38a  :     0.176152 (c= -0.41970494)
    32a ->  39a  :     0.026630 (c=  0.16318599)
    32a ->  40a  :     0.028880 (c= -0.16994198)
    32a ->  41a  :     0.063349 (c= -0.25169293)
    32a ->  42a  :     0.015954 (c=  0.12630846)
    32a ->  43a  :     0.010831 (c= -0.10407386)
    32a ->  49a  :     0.016774 (c=  0.12951344)
    32a ->  58a  :     0.011621 (c= -0.10779973)

Storing amplitudes in GBW file ... 
... GBW file created

------------------------------------------
NATURAL TRANSITION ORBITALS FOR STATE    1
------------------------------------------

Making the (pseudo)densities                       ... done
Solving eigenvalue problem for the occupied space  ... done
Solving eigenvalue problem for the virtual space   ... done
Natural Transition Orbitals were saved in s1_freq_2_wat_non.s1.nto
Threshold for printing occupation numbers 0.001000

 E=   0.103881 au      2.827 eV    22799.2 cm**-1
    32a ->  33a  : n=  0.99124277
    31a ->  34a  : n=  0.00823287


------------------------------------------
NATURAL TRANSITION ORBITALS FOR STATE    2
------------------------------------------

Making the (pseudo)densities                       ... done
Solving eigenvalue problem for the occupied space  ... done
Solving eigenvalue problem for the virtual space   ... done
Natural Transition Orbitals were saved in s1_freq_2_wat_non.s2.nto
Threshold for printing occupation numbers 0.001000

 E=   0.138209 au      3.761 eV    30333.3 cm**-1
    32a ->  33a  : n=  0.99916308


------------------------------------------
NATURAL TRANSITION ORBITALS FOR STATE    3
------------------------------------------

Making the (pseudo)densities                       ... done
Solving eigenvalue problem for the occupied space  ... done
Solving eigenvalue problem for the virtual space   ... done
Natural Transition Orbitals were saved in s1_freq_2_wat_non.s3.nto
Threshold for printing occupation numbers 0.001000

 E=   0.153205 au      4.169 eV    33624.7 cm**-1
    32a ->  33a  : n=  0.97831682
    31a ->  34a  : n=  0.02115893


------------------------------------------
NATURAL TRANSITION ORBITALS FOR STATE    4
------------------------------------------

Making the (pseudo)densities                       ... done
Solving eigenvalue problem for the occupied space  ... done
Solving eigenvalue problem for the virtual space   ... done
Natural Transition Orbitals were saved in s1_freq_2_wat_non.s4.nto
Threshold for printing occupation numbers 0.001000

 E=   0.190997 au      5.197 eV    41919.0 cm**-1
    32a ->  33a  : n=  0.99940437


------------------------------------------
NATURAL TRANSITION ORBITALS FOR STATE    5
------------------------------------------

Making the (pseudo)densities                       ... done
Solving eigenvalue problem for the occupied space  ... done
Solving eigenvalue problem for the virtual space   ... done
Natural Transition Orbitals were saved in s1_freq_2_wat_non.s5.nto
Threshold for printing occupation numbers 0.001000

 E=   0.221071 au      6.016 eV    48519.5 cm**-1
    32a ->  33a  : n=  0.97379279
    31a ->  34a  : n=  0.01445726
    30a ->  35a  : n=  0.00381564
    29a ->  36a  : n=  0.00234640
    28a ->  37a  : n=  0.00174693
    27a ->  38a  : n=  0.00129957


------------------------------------------
NATURAL TRANSITION ORBITALS FOR STATE    6
------------------------------------------

Making the (pseudo)densities                       ... done
Solving eigenvalue problem for the occupied space  ... done
Solving eigenvalue problem for the virtual space   ... done
Natural Transition Orbitals were saved in s1_freq_2_wat_non.s6.nto
Threshold for printing occupation numbers 0.001000

 E=   0.222391 au      6.052 eV    48809.2 cm**-1
    32a ->  33a  : n=  0.97011696
    31a ->  34a  : n=  0.01654843
    30a ->  35a  : n=  0.00401672
    29a ->  36a  : n=  0.00259581
    28a ->  37a  : n=  0.00216549
    27a ->  38a  : n=  0.00142963


------------------------------------------
NATURAL TRANSITION ORBITALS FOR STATE    7
------------------------------------------

Making the (pseudo)densities                       ... done
Solving eigenvalue problem for the occupied space  ... done
Solving eigenvalue problem for the virtual space   ... done
Natural Transition Orbitals were saved in s1_freq_2_wat_non.s7.nto
Threshold for printing occupation numbers 0.001000

 E=   0.241833 au      6.581 eV    53076.2 cm**-1
    32a ->  33a  : n=  0.98576008
    31a ->  34a  : n=  0.01260047


------------------------------------------
NATURAL TRANSITION ORBITALS FOR STATE    8
------------------------------------------

Making the (pseudo)densities                       ... done
Solving eigenvalue problem for the occupied space  ... done
Solving eigenvalue problem for the virtual space   ... done
Natural Transition Orbitals were saved in s1_freq_2_wat_non.s8.nto
Threshold for printing occupation numbers 0.001000

 E=   0.253557 au      6.900 eV    55649.3 cm**-1
    32a ->  33a  : n=  0.94424074
    31a ->  34a  : n=  0.02873658
    30a ->  35a  : n=  0.01154237
    29a ->  36a  : n=  0.00560022
    28a ->  37a  : n=  0.00359988
    27a ->  38a  : n=  0.00200943
    26a ->  39a  : n=  0.00125140


------------------------------------------
NATURAL TRANSITION ORBITALS FOR STATE    9
------------------------------------------

Making the (pseudo)densities                       ... done
Solving eigenvalue problem for the occupied space  ... done
Solving eigenvalue problem for the virtual space   ... done
Natural Transition Orbitals were saved in s1_freq_2_wat_non.s9.nto
Threshold for printing occupation numbers 0.001000

 E=   0.259385 au      7.058 eV    56928.5 cm**-1
    32a ->  33a  : n=  0.97999595
    31a ->  34a  : n=  0.01567832
    30a ->  35a  : n=  0.00261894


------------------------------------------
NATURAL TRANSITION ORBITALS FOR STATE   10
------------------------------------------

Making the (pseudo)densities                       ... done
Solving eigenvalue problem for the occupied space  ... done
Solving eigenvalue problem for the virtual space   ... done
Natural Transition Orbitals were saved in s1_freq_2_wat_non.s10.nto
Threshold for printing occupation numbers 0.001000

 E=   0.262641 au      7.147 eV    57643.1 cm**-1
    32a ->  33a  : n=  0.99579823
    31a ->  34a  : n=  0.00361122


-----------------------------
TD-DFT/TDA-EXCITATION SPECTRA
-----------------------------

Center of mass = ( -1.9014,  3.2590,  0.2045)
Generating CIS transition densities           ... done

----------------------------------------------------------------------------------------------------
                     ABSORPTION SPECTRUM VIA TRANSITION ELECTRIC DIPOLE MOMENTS    
----------------------------------------------------------------------------------------------------
     Transition      Energy     Energy  Wavelength fosc(D2)      D2        DX        DY        DZ   
                      (eV)      (cm-1)    (nm)                 (au**2)    (au)      (au)      (au)  
----------------------------------------------------------------------------------------------------
  0-1A  ->  1-1A    2.826743   22799.2   438.6   0.000066640   0.00096  -0.01057  -0.00084  -0.02915
  0-1A  ->  2-1A    3.760855   30333.3   329.7   0.009045236   0.09817  -0.31007  -0.02046   0.04010
  0-1A  ->  3-1A    4.168925   33624.7   297.4   0.000203073   0.00199   0.00191   0.04215   0.01443
  0-1A  ->  4-1A    5.197289   41919.0   238.6   0.001056440   0.00830  -0.03338   0.08285  -0.01786
  0-1A  ->  5-1A    6.015657   48519.5   206.1   0.024921950   0.16910   0.40368  -0.06649  -0.04147
  0-1A  ->  6-1A    6.051570   48809.2   204.9   0.023254190   0.15685  -0.39341   0.04158  -0.01856
  0-1A  ->  7-1A    6.580603   53076.2   188.4   0.002749266   0.01705  -0.01122   0.00782  -0.12987
  0-1A  ->  8-1A    6.899632   55649.3   179.7   0.175897761   1.04058   0.99599  -0.21932  -0.02194
  0-1A  ->  9-1A    7.058230   56928.5   175.7   0.004173189   0.02413  -0.09914  -0.11960   0.00025
  0-1A  -> 10-1A    7.146832   57643.1   173.5   0.044822906   0.25599  -0.08407  -0.14954  -0.47599

----------------------------------------------------------------------------------------------------
                     ABSORPTION SPECTRUM VIA TRANSITION VELOCITY DIPOLE MOMENTS    
----------------------------------------------------------------------------------------------------
     Transition      Energy     Energy  Wavelength fosc(P2)      P2        PX        PY        PZ   
                      (eV)      (cm-1)    (nm)                 (au**2)    (au)      (au)      (au)  
----------------------------------------------------------------------------------------------------
  0-1A  ->  1-1A    2.826743   22799.2   438.6   0.001953351   0.00030   0.00196   0.00506   0.01658
  0-1A  ->  2-1A    3.760855   30333.3   329.7   0.000311404   0.00006   0.00770   0.00210  -0.00092
  0-1A  ->  3-1A    4.168925   33624.7   297.4   0.000283207   0.00007   0.00001  -0.00087   0.00802
  0-1A  ->  4-1A    5.197289   41919.0   238.6   0.000393402   0.00011   0.00473  -0.00530   0.00789
  0-1A  ->  5-1A    6.015657   48519.5   206.1   0.007303955   0.00242   0.04316   0.01450  -0.01868
  0-1A  ->  6-1A    6.051570   48809.2   204.9   0.010159819   0.00339  -0.05406  -0.02130   0.00366
  0-1A  ->  7-1A    6.580603   53076.2   188.4   0.000146956   0.00005   0.00165  -0.00337   0.00626
  0-1A  ->  8-1A    6.899632   55649.3   179.7   0.003393615   0.00129  -0.02903  -0.01840   0.01046
  0-1A  ->  9-1A    7.058230   56928.5   175.7   0.001112694   0.00043   0.00215   0.02013  -0.00480
  0-1A  -> 10-1A    7.146832   57643.1   173.5   0.036776457   0.01449   0.01837   0.03560   0.11351

------------------------------------------------------------------------------------------
                     CD SPECTRUM VIA TRANSITION ELECTRIC DIPOLE MOMENTS    
[...]
     39       0.000145   0.001137   0.024774  -0.002080  -0.000151   0.000017
     40       0.000081   0.008261   0.050437  -0.001946  -0.000352   0.000053
     41      -0.000668   0.006446   0.035059  -0.001440   0.000200   0.000042
     42      -0.033223   0.131778  -0.235681   0.024196   0.002325  -0.000164
     43       0.005374  -0.065793  -0.264821   0.008615   0.005156  -0.000520
     44       0.006946  -0.125827  -0.706113   0.030006  -0.002841   0.000238
     45       0.002695  -0.044705  -0.200278   0.006494  -0.000237   0.000037
     46       0.009676  -0.104070  -0.558966   0.022860  -0.001164   0.000086
     47      -0.002228   0.020765   0.111370  -0.004616   0.000169  -0.000233
                 42         43         44         45         46         47    
      0       0.001309   0.000868  -0.001373   0.000661   0.000024  -0.000092
      1       0.002695  -0.001670   0.001436   0.000634  -0.000370   0.000223
      2      -0.000928   0.000484  -0.000524  -0.000252   0.000102  -0.000049
      3       0.000759  -0.006638   0.000527  -0.001086   0.000267   0.000270
      4      -0.001600  -0.000063   0.000397  -0.002010   0.000409  -0.000081
      5       0.000420   0.000555  -0.000004   0.000728  -0.000132   0.000214
      6      -0.067548   0.001172   0.000519  -0.000037   0.000082  -0.000017
      7       0.061327   0.000028  -0.000079  -0.000068  -0.000003  -0.000051
      8      -0.013703  -0.000030  -0.000024   0.000001  -0.000006   0.000027
      9      -0.015127  -0.000156  -0.000026   0.000478   0.000046   0.000089
     10      -0.215055  -0.001332  -0.000271   0.001224  -0.000009   0.000145
     11      -0.170444  -0.000393  -0.000015   0.000447  -0.000018   0.000005
     12       0.027466  -0.000222  -0.000208   0.000362   0.000052  -0.000050
     13      -0.086680  -0.000385  -0.000289   0.000665   0.000019   0.000177
     14       0.275686   0.000091   0.000288  -0.001060   0.000003  -0.000377
     15       0.790333  -0.010838  -0.001712  -0.000261  -0.000858   0.000316
     16      -0.450195   0.006648   0.001328   0.000416   0.000480  -0.000006
     17       0.065002  -0.000962  -0.000172  -0.000166  -0.000051  -0.000203
     18      -0.000775  -0.000082   0.001271  -0.000285  -0.000001   0.000013
     19      -0.000246   0.000285  -0.001342   0.000069   0.000180  -0.000041
     20       0.000133  -0.000081   0.000398  -0.000016  -0.000054   0.000021
     21      -0.000512   0.003468  -0.000123   0.000833  -0.000098  -0.000192
     22       0.000630  -0.000970  -0.000031  -0.000370  -0.000030   0.000134
     23      -0.000155  -0.000223  -0.000005   0.000102   0.000016  -0.000134
     24      -0.000237   0.003321  -0.000378   0.021853  -0.000121  -0.000339
     25      -0.000003  -0.004285  -0.000355  -0.056265  -0.000477   0.000803
     26       0.000011   0.001037   0.000150   0.016606   0.000140  -0.000275
     27       0.001065  -0.024687  -0.002752  -0.341252   0.001640   0.006085
     28       0.002591   0.074263   0.005034   0.896692   0.001260  -0.013213
     29      -0.000675  -0.017954  -0.001229  -0.261777  -0.000567   0.004753
     30      -0.000021   0.000081  -0.049402   0.000069   0.018972   0.000505
     31      -0.000201  -0.000301  -0.028574   0.000256  -0.057053  -0.001596
     32       0.000047   0.000062   0.016077  -0.000094   0.014868   0.000371
     33       0.001233   0.002359   0.780278  -0.003892   0.077173   0.002487
     34       0.001871   0.003415   0.545719  -0.004538   0.015587   0.000372
     35      -0.000803  -0.001355  -0.283975   0.001993  -0.016062   0.000026
     36      -0.000845  -0.002618   0.000995   0.002286  -0.378935  -0.010478
     37       0.000414   0.002150  -0.091305   0.000498   0.892609   0.024958
     38       0.000012  -0.000112   0.028206  -0.000447  -0.220383  -0.006114
     39       0.000227   0.016547  -0.000104  -0.002293  -0.000345   0.008851
     40       0.000649   0.053460  -0.000269  -0.003098  -0.000249   0.002484
     41      -0.000260  -0.022752   0.000074   0.002214  -0.001651   0.061630
     42      -0.003812  -0.275177   0.000851   0.031132  -0.000053   0.022808
     43      -0.009560  -0.847086   0.003650   0.068640   0.001370   0.058639
     44       0.004995   0.435703  -0.001741  -0.034387  -0.001410  -0.001410
     45       0.000840  -0.004267   0.000013  -0.003601   0.004351  -0.163465
     46      -0.000323   0.017785   0.000469  -0.003463   0.002935  -0.100482
     47      -0.000906  -0.078529   0.000252  -0.008867   0.027498  -0.976895


-----------
IR SPECTRUM
-----------

 Mode   freq       eps      Int      T**2         TX        TY        TZ
       cm**-1   L/(mol*cm) km/mol    a.u.
----------------------------------------------------------------------------
  8:     45.38   0.001580    7.99  0.010867  (-0.093114  0.035158 -0.030996)
  9:     60.95   0.000269    1.36  0.001377  ( 0.029410 -0.003702  0.022321)
 10:     72.14   0.001336    6.75  0.005777  (-0.044437  0.036051  0.050031)
 11:     96.63   0.001036    5.24  0.003346  (-0.019437 -0.045888  0.029362)
 12:    151.38   0.003287   16.61  0.006775  (-0.074086  0.026273 -0.024416)
 13:    166.94   0.001956    9.88  0.003656  (-0.050698 -0.003899 -0.032713)
 14:    196.63   0.000696    3.52  0.001104  (-0.010988  0.031356 -0.000440)
 15:    218.84   0.013074   66.07  0.018643  (-0.133989  0.026247 -0.001078)
 16:    319.01   0.005047   25.50  0.004937  (-0.035735  0.054637 -0.025971)
 17:    346.98   0.013287   67.14  0.011949  ( 0.017542  0.102176 -0.034666)
 18:    387.68   0.002580   13.04  0.002077  ( 0.040019  0.018652  0.011293)
 19:    393.60   0.001929    9.75  0.001530  (-0.011413 -0.020430  0.031338)
 20:    425.37   0.012535   63.34  0.009196  (-0.000554  0.071450 -0.063955)
 21:    523.63   0.006314   31.91  0.003763  (-0.051845 -0.032785  0.000140)
 22:    527.32   0.020802  105.12  0.012310  ( 0.012456  0.032129  0.105464)
 23:    591.19   0.008559   43.26  0.004518  ( 0.018412  0.063197 -0.013610)
 24:    619.00   0.015444   78.05  0.007786  (-0.015678  0.002659  0.086792)
 25:    711.12   0.011132   56.25  0.004885  ( 0.004518  0.013627  0.068402)
 26:    780.47   0.000308    1.56  0.000123  ( 0.007737  0.006740 -0.004222)
 27:    933.56   0.042025  212.38  0.014048  ( 0.086922 -0.080052  0.009169)
 28:    956.84   0.000847    4.28  0.000276  ( 0.015507 -0.005956 -0.000453)
 29:    998.45   0.000803    4.06  0.000251  ( 0.001380  0.004181  0.015218)
 30:   1062.10   0.043273  218.68  0.012714  ( 0.062256  0.088161 -0.032652)
 31:   1215.99   0.002170   10.97  0.000557  ( 0.005321 -0.022629  0.004059)
 32:   1346.09   0.008348   42.19  0.001935  ( 0.033903  0.026659 -0.008678)
 33:   1350.38   0.024061  121.60  0.005560  ( 0.074247 -0.002453 -0.006464)
 34:   1417.80   0.002058   10.40  0.000453  ( 0.002505 -0.007705 -0.019681)
 35:   1423.20   0.032167  162.56  0.007053  (-0.080809  0.022641 -0.003241)
 36:   1460.90   0.019744   99.78  0.004218  ( 0.064372  0.006142 -0.006010)
 37:   1624.73   0.006079   30.72  0.001168  (-0.031943  0.010617 -0.005867)
 38:   1671.96   0.009333   47.17  0.001742  (-0.018402 -0.033235 -0.017287)
 39:   1681.56   0.032502  164.25  0.006032  (-0.076278  0.012977  0.006701)
 40:   3026.84   0.000085    0.43  0.000009  (-0.002834 -0.000655  0.000501)
 41:   3098.42   0.000013    0.06  0.000001  (-0.000155 -0.000290 -0.001077)
 42:   3158.56   0.000770    3.89  0.000076  (-0.006538 -0.005200  0.002516)
 43:   3309.39   0.139258  703.75  0.013132  ( 0.014589 -0.102170  0.049800)
 44:   3543.22   0.106164  536.51  0.009350  ( 0.089143  0.030978 -0.021072)
 45:   3735.50   0.103416  522.62  0.008639  (-0.021833  0.084388 -0.032271)
 46:   3937.42   0.005102   25.78  0.000404  ( 0.001583  0.019272 -0.005520)
 47:   3950.24   0.011938   60.33  0.000943  (-0.006951  0.015218 -0.025753)

* The epsilon (eps) is given for a Dirac delta lineshape.
** The dipole moment derivative (T) already includes vibrational overlap.

The first frequency considered to be a vibration is 8
The total number of vibrations considered is 40


--------------------------
THERMOCHEMISTRY AT 298.15K
--------------------------

Temperature         ...   298.15 K
Pressure            ...     1.00 atm
Total Mass          ...   124.09 AMU
Quasi RRHO          ...     True
Cut-Off Frequency   ...     1.00 cm^-1

Throughout the following assumptions are being made:
  (1) The electronic state is orbitally nondegenerate
  (2) There are no thermally accessible electronically excited states
  (3) Hindered rotations indicated by low frequency modes are not
      treated as such but are treated as vibrations and this may
      cause some error
  (4) All equations used are the standard statistical mechanics
      equations for an ideal gas
  (5) All vibrations are strictly harmonic

freq.      45.38  E(vib)   ...       0.53 
freq.      60.95  E(vib)   ...       0.51 
freq.      72.14  E(vib)   ...       0.50 
freq.      96.63  E(vib)   ...       0.47 
freq.     151.38  E(vib)   ...       0.40 
freq.     166.94  E(vib)   ...       0.39 
freq.     196.63  E(vib)   ...       0.36 
freq.     218.84  E(vib)   ...       0.33 
freq.     319.01  E(vib)   ...       0.25 
freq.     346.98  E(vib)   ...       0.23 
freq.     387.68  E(vib)   ...       0.20 
freq.     393.60  E(vib)   ...       0.20 
freq.     425.37  E(vib)   ...       0.18 
freq.     523.63  E(vib)   ...       0.13 
freq.     527.32  E(vib)   ...       0.13 
freq.     591.19  E(vib)   ...       0.10 
freq.     619.00  E(vib)   ...       0.09 
freq.     711.12  E(vib)   ...       0.07 
freq.     780.47  E(vib)   ...       0.05 
freq.     933.56  E(vib)   ...       0.03 
freq.     956.84  E(vib)   ...       0.03 
freq.     998.45  E(vib)   ...       0.02 
freq.    1062.10  E(vib)   ...       0.02 
freq.    1215.99  E(vib)   ...       0.01 
freq.    1346.09  E(vib)   ...       0.01 
freq.    1350.38  E(vib)   ...       0.01 
freq.    1417.80  E(vib)   ...       0.00 
freq.    1423.20  E(vib)   ...       0.00 
freq.    1460.90  E(vib)   ...       0.00 
freq.    1624.73  E(vib)   ...       0.00 
freq.    1671.96  E(vib)   ...       0.00 
freq.    1681.56  E(vib)   ...       0.00 
freq.    3026.84  E(vib)   ...       0.00 
freq.    3098.42  E(vib)   ...       0.00 
freq.    3158.56  E(vib)   ...       0.00 
freq.    3309.39  E(vib)   ...       0.00 
freq.    3543.22  E(vib)   ...       0.00 
freq.    3735.50  E(vib)   ...       0.00 
freq.    3937.42  E(vib)   ...       0.00 
freq.    3950.24  E(vib)   ...       0.00 

------------
INNER ENERGY
------------

The inner energy is: U= E(el) + E(ZPE) + E(vib) + E(rot) + E(trans)
    E(el)   - is the total energy from the electronic structure calculation
              = E(kin-el) + E(nuc-el) + E(el-el) + E(nuc-nuc)
    E(ZPE)  - the the zero temperature vibrational energy from the frequency calculation
    E(vib)  - the the finite temperature correction to E(ZPE) due to population
              of excited vibrational states
    E(rot)  - is the rotational thermal energy
    E(trans)- is the translational thermal energy

Summary of contributions to the inner energy U:
Electronic energy                ...   -495.06644543 Eh
Zero point energy                ...      0.11741087 Eh      73.68 kcal/mol
Thermal vibrational correction   ...      0.00836213 Eh       5.25 kcal/mol
Thermal rotational correction    ...      0.00141627 Eh       0.89 kcal/mol
Thermal translational correction ...      0.00141627 Eh       0.89 kcal/mol
-----------------------------------------------------------------------
Total thermal energy                   -494.93783989 Eh


Summary of corrections to the electronic energy:
(perhaps to be used in another calculation)
Total thermal correction                  0.01119467 Eh       7.02 kcal/mol
Non-thermal (ZPE) correction              0.11741087 Eh      73.68 kcal/mol
-----------------------------------------------------------------------
Total correction                          0.12860554 Eh      80.70 kcal/mol


--------
ENTHALPY
--------

The enthalpy is H = U + kB*T
                kB is Boltzmann's constant
Total thermal energy              ...   -494.93783989 Eh 
Thermal Enthalpy correction       ...      0.00094421 Eh       0.59 kcal/mol
-----------------------------------------------------------------------
Total Enthalpy                    ...   -494.93689568 Eh


Note: Only C1 symmetry has been detected, increase convergence thresholds 
      if your molecule has a higher symmetry. Symmetry factor of 1.0 is   
      used for the rotational entropy correction. 
 

Note: Rotational entropy computed according to Herzberg 
Infrared and Raman Spectra, Chapter V,1, Van Nostrand Reinhold, 1945 
Point Group:  C1, Symmetry Number:   1  
Rotational constants in cm-1:     0.063824     0.038928     0.024382 

Vibrational entropy computed according to the QRRHO of S. Grimme
Chem.Eur.J. 2012 18 9955 using a reference frequency of 100.0 cm-1


-------
ENTROPY
-------

The entropy contributions are T*S = T*(S(el)+S(vib)+S(rot)+S(trans))
     S(el)   - electronic entropy
     S(vib)  - vibrational entropy
     S(rot)  - rotational entropy
     S(trans)- translational entropy
The entropies will be listed as multiplied by the temperature to get
units of energy

Electronic entropy                ...      0.00000000 Eh      0.00 kcal/mol
Vibrational entropy               ...      0.01495232 Eh      9.38 kcal/mol
Rotational entropy                ...      0.01409555 Eh      8.85 kcal/mol
Translational entropy             ...      0.01917695 Eh     12.03 kcal/mol
-----------------------------------------------------------------------
Final entropy term                ...      0.04822483 Eh     30.26 kcal/mol

In case the symmetry of your molecule has not been determined correctly
or in case you have a reason to use a different symmetry number we print 
out the resulting rotational entropy values for sn=1,12:

 non-linear molecules -----------------------------------
|  sn= 1 | S(rot)=       0.01409555 Eh      8.85 kcal/mol|
|  sn= 2 | S(rot)=       0.01344110 Eh      8.43 kcal/mol|
|  sn= 3 | S(rot)=       0.01305827 Eh      8.19 kcal/mol|
|  sn= 4 | S(rot)=       0.01278664 Eh      8.02 kcal/mol|
|  sn= 5 | S(rot)=       0.01257595 Eh      7.89 kcal/mol|
|  sn= 6 | S(rot)=       0.01240381 Eh      7.78 kcal/mol|
|  sn= 7 | S(rot)=       0.01225826 Eh      7.69 kcal/mol|
|  sn= 8 | S(rot)=       0.01213219 Eh      7.61 kcal/mol|
|  sn= 9 | S(rot)=       0.01202098 Eh      7.54 kcal/mol|
|  sn=10 | S(rot)=       0.01192150 Eh      7.48 kcal/mol|
|  sn=11 | S(rot)=       0.01183151 Eh      7.42 kcal/mol|
|  sn=12 | S(rot)=       0.01174935 Eh      7.37 kcal/mol|
 linear molecules ---------------------------------------
|  Dinfh | S(rot)=       0.00883241 Eh      5.54 kcal/mol|
|  Cinfv | S(rot)=       0.00948687 Eh      5.95 kcal/mol|
 --------------------------------------------------------


-------------------
GIBBS FREE ENERGY
-------------------

The Gibbs free energy is G = H - T*S

Total enthalpy                    ...   -494.93689568 Eh 
Total entropy correction          ...     -0.04822483 Eh    -30.26 kcal/mol
-----------------------------------------------------------------------
Final Gibbs free energy         ...   -494.98512051 Eh

For completeness - the Gibbs free energy minus the electronic energy
G-E(el)                           ...      0.08132492 Eh     51.03 kcal/mol



--------------------------------
SUGGESTED CITATIONS FOR THIS RUN
--------------------------------

Below you find a list of papers that are relevant to this ORCA run
We neither can nor want to force you to cite these papers, but we appreciate if you do
You receive ORCA, which is the product of decades of hard work by many enthusiastic individuals, for free
The only thing we kindly ask in return is that you cite our papers,
We deeply appreciate it, if you show your appreciation for ORCA by not just citing the generic ORCA reference.

Please note that relegating all ORCA citations to the supporting information does *not* help us.
SI sections are not indexed - citations you put there will not count into any citation statistics
But we need these citations in order to attract the funding resources that allow us to do what we are doing

Therefore, if you are a happy ORCA user, please consider citing a few of the papers listed below in the main body of your paper

In addition to the list printed below, the program has created the file s1_freq_2_wat_non.bibtex that contains the list in bibtex format
You can import this file easily into all common literature databanks and citation aid programs


List of essential papers. We consider these as the minimum necessary citations

  1. Neese, F.
     Software update: the ORCA program system, version 6.0
     WIRES Comput. Molec. Sci. 2025 15(1), e70019
     doi.org/10.1002/wcms.7019

List of papers to cite with high priority. The work reported in these papers was absolutely
necessary for this run to complete.
Our perspective: the developers of density functionals and basis sets usually get cited in chemistry papers
Good! But without the algorithms to do something with them, the functionals or basis sets would not do anything.
Hence, in our opinion, the algorithm design and method developments papers are equally worthy of getting cited

  1. Neese, F.; Olbrich, G.
     Efficient use of the resolution of the identity approximation in time-dependent density functional calculations with hybrid density functionals
     Chem. Phys. Lett. 2002 362 , 170-178
     doi.org/10.1016/s0009-2614(02)01053-9
  2. Petrenko, T.; Kossmann, S.; Neese, F.
     Efficient time-dependent density functional theory approximations for hybrid density functionals: Analytical gradients and parallelization
     J. Chem. Phys. 2011 134 , 054116
     doi.org/10.1063/1.3533441
  3. Lehtola, S.; Steigemann, C.; Oliveira, M.; Marques, M.
     Recent developments in Libxc - A comprehensive library of functionals for density functional theory
     Software X 2018 7 , 
     doi.org/10.1016/j.softx.2017.11.002
  4. Neese, F.
     The SHARK Integral Generation and Digestion System
     J. Comp. Chem. 2022 44(3), 381
     doi.org/10.1002/jcc.26942

List of suggested additional citations. These are papers that are important in the 'surrounding' of 
of this run, or papers that preceded the highly important papers. If you like your results we are grateful for a citation.

  1. Neese, F.
     The ORCA program system
     WIRES Comput. Molec. Sci. 2012 2(1), 73-78
     doi.org/10.1002/wcms.81
  2. Neese, F.
     Software update: the ORCA program system, version 4.0
     WIRES Comput. Molec. Sci. 2018 8(1), 1-6
     doi.org/10.1002/wcms.1327
  3. Neese, F.; Wennmohs, F.; Becker, U.; Riplinger, C.
     The ORCA quantum chemistry program package
     J. Chem. Phys. 2020 152(22), 224108
     doi.org/10.1063/5.0004608
  4. Neese, F.
     Software update: The ORCA program system—Version 5.0
     WIRES Comput. Molec. Sci. 2022 12(1), e1606
     doi.org/10.1002/wcms.1606

List of optional additional citations

  1. Neese, F.
     Approximate second-order SCF convergence for spin unrestricted wavefunctions
     Chem. Phys. Lett. 2000 325(1-3), 93-98
     doi.org/10.1016/s0009-2614(00)00662-x

Timings for individual modules:

Sum of individual times          ...    60488.269 sec (=1008.138 min)
Startup calculation              ...        8.234 sec (=   0.137 min)   0.0 %
SCF iterations                   ...      274.897 sec (=   4.582 min)   0.5 %
Property integrals               ...        2.830 sec (=   0.047 min)   0.0 %
Property calculations            ...        2.414 sec (=   0.040 min)   0.0 %
CIS module                       ...     1829.090 sec (=  30.485 min)   3.0 %
Numerical frequency calculation  ...    58370.804 sec (= 972.847 min)  96.5 %
                             ****ORCA TERMINATED NORMALLY****
TOTAL RUN TIME: 0 days 16 hours 30 minutes 34 seconds 615 msec
