
                                 *****************
                                 * O   R   C   A *
                                 *****************

                                            #,                                       
                                            ###                                      
                                            ####                                     
                                            #####                                    
                                            ######                                   
                                           ########,                                 
                                     ,,################,,,,,                         
                               ,,#################################,,                 
                          ,,##########################################,,             
                       ,#########################################, ''#####,          
                    ,#############################################,,   '####,        
                  ,##################################################,,,,####,       
                ,###########''''           ''''###############################       
              ,#####''   ,,,,##########,,,,          '''####'''          '####       
            ,##' ,,,,###########################,,,                        '##       
           ' ,,###''''                  '''############,,,                           
         ,,##''                                '''############,,,,        ,,,,,,###''
      ,#''                                            '''#######################'''  
     '                                                          ''''####''''         
             ,#######,   #######,   ,#######,      ##                                
            ,#'     '#,  ##    ##  ,#'     '#,    #''#        ,####,    ,#,          
            ##       ##  ##   ,#'  ##            #'  '#       #'       ,# #          
            ##       ##  #######   ##           ,######,      #####,      #          
            '#,     ,#'  ##    ##  '#,     ,#' ,#      #,     #,   #      #          
             '#######'   ##     ##  '#######'  #'      '#     '####' #    #          



                #########################################################
                #                        -***-                          #
                #          Department of theory and spectroscopy        #
                #                                                       #
                #                      Frank Neese                      #
                #                                                       #
                #     Directorship, Architecture, Infrastructure        #
                #                    SHARK, DRIVERS                     #
                #        Core code/Algorithms in most modules           #
                #                                                       #
                #        Max Planck Institute fuer Kohlenforschung      #
                #                Kaiser Wilhelm Platz 1                 #
                #                 D-45470 Muelheim/Ruhr                 #
                #                      Germany                          #
                #                                                       #
                #                  All rights reserved                  #
                #                        -***-                          #
                #########################################################


                         Program Version 6.1.0  -  RELEASE   -
                                (GIT: $679e74b$)
                          ($2025-06-10 18:02:51 +0200$)


 With contributions from (in alphabetic order):
[Max-Planck-Institut fuer Kohlenforschung]                               
  Daniel Aravena         : Magnetic Suceptibility                        
  Michael Atanasov       : Ab Initio Ligand Field Theory (pilot matlab implementation)
  Alexander A. Auer      : GIAO ZORA, VPT2 properties, NMR spectrum      
  Ute Becker             : All parallelization in ORCA, NUMFREQ, NUMCALC 
  Giovanni Bistoni       : ED, misc. LED, open-shell LED, HFLD           
  Dmytro Bykov           : pre 5.0 version of the SCF Hessian            
  Marcos Casanova-Páez   : Triplet and SCS-CIS(D). UHF-(DLPNO)-IP/EA/STEOM-CCSD. UHF-CVS-IP/STEOM-CCSD   
  Vijay G. Chilkuri      : MRCI spin determinant printing, contributions to CSF-ICE 
  Pauline Colinet        : FMM embedding                                 
  Dipayan Datta          : RHF DLPNO-CCSD density                        
  Achintya Kumar Dutta   : EOM-CC, STEOM-CC                              
  Nicolas Foglia         : Exact transition moments, OPA infrastructure, MCD improvements    
  Dmitry Ganyushin       : Spin-Orbit,Spin-Spin,Magnetic field MRCI      
  Miquel Garcia-Rates    : C-PCM and meta-GGA Hessian, CCSD/C-PCM, Gaussian charge scheme 
  Tiago L. C. Gouveia    : GS-ROHF, GS-ROCIS                             
  Yang Guo               : DLPNO-NEVPT2, F12-NEVPT2, CIM, IAO-localization        
  Andreas Hansen         : Spin unrestricted coupled pair/coupled cluster methods 
  Ingolf Harden          : AUTO-CI MPn and infrastructure                
  Benjamin Helmich-Paris : MC-RPA, TRAH-(SCF,CASSCF), AVAS, COSX integrals, SCF dyn. polar., MC-PDFT, srDFT 
  Lee Huntington         : MR-EOM, pCC                                   
  Robert Izsak           : Overlap fitted RIJCOSX, COSX-SCS-MP3, EOM     
  Riya Kayal             : Wick's Theorem for AUTO-CI, AUTO-CI UHF-CCSDT 
  Emily Kempfer          : AUTO-CI RHF CISDT and CCSDT, approximate NEVPT4
  Christian Kollmar      : KDIIS, OOCD, Brueckner-CCSD(T), CCSD density, CASPT2, CASPT2-K, improved NEVPT2 
  Axel Koslowski         : Symmetry handling                             
  Simone Kossmann        : meta-GGA functionals, TD-DFT gradient, OOMP2, (MP2 Hessian; deprecated post 5.0) 
  Lucas Lang             : DCDCAS, Hyperfine gauge corrections, ICE-SOC+SSC
  Marvin Lechner         : AUTO-CI (C++ implementation), FIC-MRCC        
  Spencer Leger          : CASSCF response                               
  Dagmar Lenk            : GEPOL surface, SMD, ORCA-2-JSON               
  Dimitrios Liakos       : Extrapolation schemes; Compound Job, Property file
  Dimitrios Manganas     : Further ROCIS development; embedding schemes. LFT, Crystal Embedding 
  Dimitrios Pantazis     : SARC Basis sets                               
  Anastasios Papadopoulos: AUTO-CI, single reference methods and gradients 
  Taras Petrenko         : pre 6.0 DFT Hessian and TD-DFT gradient,  ECA, NRVS 
  Petra Pikulova         : Analytic Raman intensities                    
  Peter Pinski           : DLPNO-MP2, DLPNO-MP2 Gradient                 
  Shashank Vittal Rao    : ES-AILFT, MagRelax                            
  Christoph Reimann      : Effective Core Potentials                     
  Marius Retegan         : Local ZFS, SOC                                
  Christoph Riplinger    : Optimizer, TS searches, QM/MM, DLPNO-CCSD(T), (RO)-DLPNO pert. Triples 
  Michael Roemelt        : Original ROCIS implementation, recursive CI coupling coefficients
  Masaaki Saitow         : Open-shell DLPNO-CCSD energy and density      
  Barbara Sandhoefer     : DKH picture change effects                    
  Yorick L. A. Schmerwitz: GMF and freeze-and-release deltaSCF, NEB S-IDPP initial path                    
  Kantharuban Sivalingam : CASSCF convergence/infrastructure, NEVPT2, NEVPT3, NEVPT4(SD), FIC-MRCI and CEPA variants
  Bernardo de Souza      : ESD, SOC TD-DFT                               
  Georgi L. Stoychev     : AutoAux, RI-MP2 NMR, DLPNO-MP2 response, X2C  
  Van Anh Tran           : RI-MP2 g-tensors                              
  Willem Van den Heuvel  : Paramagnetic NMR                              
  Zikuan Wang            : NOTCH, Electric field optimization            
  Frank Wennmohs         : Technical directorship and infrastructure     
  Hang Xu                : AUTO-CI-Response properties                   
                                                                         
[FACCTs GmbH]                                                            
  Markus Bursch, Nicolas Foglia, Miquel Garcia-Rates, Ingolf Harden, Hagen Neugebauer, Anastasios Papadopoulos, 
  Christoph Riplinger, Bernardo de Souza, Georgi L. Stoychev                                                    
                                                                 
  APM, various basis sets, CI-OPT, improved COSX, DLPNO-Multilevel,           
  DOCKER, DRACO, updates on ESD, Fragmentator, GOAT, IRC, LR-CPCM, L-BFGS, MBIS, meta-GGA TD-DFT gradient, ML-optimized integration grids, 
  MM, NACMEs, nearIR, NEB, NEB-TS, NL-DFT gradient (VV10), 2- and 3-layer-ONIOM, interface openCOSMO-RS, QMMM,   
  Crystal-QMMM, RESP, rigid body optimization, SF, symmetry and pop. for TD-DFT, various functionals, SOLVATOR                                   
                                                                         
[Other institutions]                                                     
  V. Asgeirsson          : NEB                                           
  Christoph Bannwarth    : sTDA-DFT, sTD-DFT, PBEh-3c, B97-3c, D3        
  Giovanni Bistoni       : ETS/NOCV, ADLD/ADEX, COVALED                  
  Martin Brehm           : Molecular dynamics                            
  Ronald Cardenas        : ETS/NOCV                                      
  Martina Colucci        : COVALED                                       
  Sebastian Ehlert       : rSCAN, r2SCAN, r2SCAN-3c, D4, dhf basis sets  
  Marvin Friede          : D4 for Fr, Ra, Ac-Lr                          
  Lars Goerigk           : TD-DFT with DH, B97 family of functionals     
  Stefan Grimme          : VdW corrections, initial TS optimization, DFT functionals, gCP, sTDA/sTD-DF 
  Waldemar Hujo          : DFT-NL                                        
  H. Jonsson             : NEB                                           
  Holger Kruse           : gCP                                           
  Marcel Mueller         : wB97X-3c, vDZP basis set                      
  Hagen Neugebauer       : wr2SCAN, Native XTB                           
  Gianluca Regni         : ADLD/ADEX                                     
  Tobias Risthaus        : pre 6.0 range-separated hybrid DFT and stability analysis
  Lukas Wittmann         : regularized MP2, r2SCAN double-hybrids, wr2SCAN        
                                                                         
We gratefully acknowledge several colleagues who have allowed us to      
interface, adapt or use parts of their codes:                            
  Ed Valeev, F. Pavosevic, A. Kumar             : LibInt (2-el integral package), F12 methods 
  Garnet Chan, S. Sharma, J. Yang, R. Olivares  : DMRG                   
  Ulf Ekstrom                                   : XCFun DFT Library      
  Mihaly Kallay                                 : mrcc  (arbitrary order and MRCC methods)
  Frank Weinhold                                : gennbo (NPA and NBO analysis)           
  Simon Mueller                                 : openCOSMO-RS                            
  Christopher J. Cramer and Donald G. Truhlar   : smd solvation model                     
  S Lehtola, MJT Oliveira, MAL Marques          : LibXC Library                           
  Liviu Ungur et al                             : ANISO software                          


 Your calculation uses the libint2 library for the computation of 2-el integrals
 For citations please refer to: http://libint.valeyev.net

 Your ORCA version has been built with support for libXC version: 7.0.0
 For citations please refer to: https://libxc.gitlab.io

 This ORCA versions uses:
   CBLAS   interface :  Fast vector & matrix operations
   LAPACKE interface :  Fast linear algebra routines
   SCALAPACK package :  Parallel linear algebra routines
   Shared memory     :  Shared parallel matrices
   BLAS/LAPACK       :  OpenBLAS 0.3.29  USE64BITINT DYNAMIC_ARCH NO_AFFINITY SkylakeX SINGLE_THREADED
        Core in use  :  SkylakeX
   Copyright (c) 2011-2014, The OpenBLAS Project


  ***********************************
  * Starting time: Wed Jan 28 11:45:58 2026
  * Host name:     bp1-compute097
  * Process ID:    1586949
  * Working dir.:  /user/work/kp22738/Diss/Orca/pyruvic_anion/dyson_orbitals/2_wat_non/15365056_t1_freq_2_wat_non
  ***********************************

NOTE: MaxCore=8000 MB was set to SCF,MP2,MDCI,CIPSI,MRCI,RASCI and CIS
      => If you want to overwrite this, your respective input block should be placed after the MaxCore statement
Using LibXC functional ID 471 : wB97X-D range-separated functional
[ 1]  J.-D. Chai and M. Head-Gordon.,  Phys. Chem. Chem. Phys. 10, 6615-6620 (2008)
Using LibXC functional ID 471 : wB97X-D range-separated functional
[ 1]  J.-D. Chai and M. Head-Gordon.,  Phys. Chem. Chem. Phys. 10, 6615-6620 (2008)
Your calculation utilizes LibXC
by S. Lehtola, C. Steigemann, M. J. T. Oliveira & M. A. L. Marques
Please cite in your paper:
Lehtola, S.; Steigemann, C.; Oliveira, M.J.T.; Marques, M. A. L. Software X, 7, (2018), 1.
   

================================================================================

----- Orbital basis set information -----
Your calculation utilizes the basis: aug-cc-pVDZ 
    H, B-Ne : Obtained from the ccRepo (grant-hill.group.shef.ac.uk/ccrepo) Feb. 2017
              R. A. Kendall, T. H. Dunning, Jr., R. J. Harrison, J. Chem. Phys. 96, 6796 (1992)
         He : Obtained from the ccRepo (grant-hill.group.shef.ac.uk/ccrepo) Feb. 2017
              D. E. Woon, T. H. Dunning, Jr., J. Chem. Phys. 100, 2975 (1994)
  Li-Be, Na : Obtained from the ccRepo (grant-hill.group.shef.ac.uk/ccrepo) Feb. 2017
              B. P. Prascher, D. E. Woon, K. A. Peterson, T. H. Dunning, Jr., A. K. Wilson, Theor. Chem. Acc. 128, 69 (2011)
         Mg : Obtained from the Peterson Research Group Website (tyr0.chem.wsu.edu/~kipeters) Feb. 2017
              B. P. Prascher, D. E. Woon, K. A. Peterson, T. H. Dunning, Jr., A. K. Wilson, Theor. Chem. Acc. 128, 69 (2011)
      Al-Ar : Obtained from the ccRepo (grant-hill.group.shef.ac.uk/ccrepo) Feb. 2017
              D. E. Woon, T. H. Dunning, Jr., J. Chem. Phys. 98, 1358 (1993)
      Sc-Zn : Obtained from the ccRepo (grant-hill.group.shef.ac.uk/ccrepo) Feb. 2017
              N. B. Balabanov, K. A. Peterson, J. Chem. Phys. 123, 064107 (2005)
              N. B. Balabanov, K. A. Peterson, J. Chem. Phys. 125, 074110 (2006)
      Ga-Kr : Obtained from the ccRepo (grant-hill.group.shef.ac.uk/ccrepo) Feb. 2017
              A. K. Wilson, D. E. Woon, K. A. Peterson, T. H. Dunning, Jr., J. Chem. Phys. 110, 7667 (1999)

================================================================================
                                        WARNINGS
                       Please study these warnings very carefully!
================================================================================


WARNING: your system is open-shell and RHF/RKS was chosen
  ===> : WILL SWITCH to UHF/UKS


================================================================================
                                       INPUT FILE
================================================================================
NAME = t1_freq_2_wat_non.inp
|  1> ! aug-cc-pVDZ TightSCF DEFGRID3 Engrad ANFREQ
|  2> 
|  3> %PAL NPROCS 8 END
|  4> 
|  5> %maxcore 8000
|  6> 
|  7> %method
|  8> method dft
|  9> functional hyb_gga_xc_wb97x_d
| 10> end
| 11> 
| 12> * xyz 0 3
| 13>   C     -0.781619    2.941696   -0.355449
| 14>   C     -0.488224    1.600086    0.048194
| 15>   C      0.390157    3.821511   -0.737226
| 16>   H      0.415675    4.707737   -0.083181
| 17>   H      0.257049    4.185181   -1.768394
| 18>   H      1.342258    3.284935   -0.659930
| 19>   O     -1.957549    3.424569   -0.408821
| 20>   O      0.666084    1.085673    0.121898
| 21>   O     -1.576054    0.826243    0.380493
| 22>   H     -1.218492   -0.037605    0.635046
| 23>   O     -4.306914    2.192235    0.312235
| 24>   H     -3.505500    2.694460    0.039322
| 25>   H     -3.907050    1.342788    0.517072
| 26>   O      0.373461   -1.343542    1.125590
| 27>   H      0.638374   -0.472270    0.721358
| 28>   H      0.536794   -1.221103    2.063221
| 29> * 
| 30> 
| 31>                          ****END OF INPUT****
================================================================================

                     *******************************
                     * Energy+Gradient Calculation *
                     *******************************

---------------------------------
CARTESIAN COORDINATES (ANGSTROEM)
---------------------------------
  C     -0.781619    2.941696   -0.355449
  C     -0.488224    1.600086    0.048194
  C      0.390157    3.821511   -0.737226
  H      0.415675    4.707737   -0.083181
  H      0.257049    4.185181   -1.768394
  H      1.342258    3.284935   -0.659930
  O     -1.957549    3.424569   -0.408821
  O      0.666084    1.085673    0.121898
  O     -1.576054    0.826243    0.380493
  H     -1.218492   -0.037605    0.635046
  O     -4.306914    2.192235    0.312235
  H     -3.505500    2.694460    0.039322
  H     -3.907050    1.342788    0.517072
  O      0.373461   -1.343542    1.125590
  H      0.638374   -0.472270    0.721358
  H      0.536794   -1.221103    2.063221

----------------------------
CARTESIAN COORDINATES (A.U.)
----------------------------
  NO LB      ZA    FRAG     MASS         X           Y           Z
   0 C     6.0000    0    12.011   -1.477046    5.559000   -0.671701
   1 C     6.0000    0    12.011   -0.922610    3.023724    0.091073
   2 C     6.0000    0    12.011    0.737290    7.221609   -1.393155
   3 H     1.0000    0     1.008    0.785512    8.896334   -0.157189
   4 H     1.0000    0     1.008    0.485752    7.908846   -3.341780
   5 H     1.0000    0     1.008    2.536500    6.207628   -1.247087
   6 O     8.0000    0    15.999   -3.699232    6.471498   -0.772560
   7 O     8.0000    0    15.999    1.258716    2.051625    0.230354
   8 O     8.0000    0    15.999   -2.978310    1.561373    0.719028
   9 H     1.0000    0     1.008   -2.302616   -0.071063    1.200063
  10 O     8.0000    0    15.999   -8.138888    4.142724    0.590039
  11 H     1.0000    0     1.008   -6.624435    5.091791    0.074308
  12 H     1.0000    0     1.008   -7.383254    2.537502    0.977124
  13 O     8.0000    0    15.999    0.705739   -2.538926    2.127057
  14 H     1.0000    0     1.008    1.206352   -0.892461    1.363169
  15 H     1.0000    0     1.008    1.014394   -2.307550    3.898923

--------------------------------
INTERNAL COORDINATES (ANGSTROEM)
--------------------------------
 C      0   0   0     0.000000000000     0.00000000     0.00000000
 C      1   0   0     1.431406891689     0.00000000     0.00000000
 C      1   2   0     1.514228221283   117.19785668     0.00000000
 H      3   1   2     1.101736154179   109.61056668   239.25063695
 H      3   1   2     1.101490377982   109.53304611   122.09547511
 H      3   1   2     1.095620732550   111.72358446     0.66821795
 O      1   2   3     1.272331037668   123.84710402   180.00274798
 O      2   1   3     1.265890979922   125.74597018     0.44164539
 O      2   1   3     1.375728797020   115.67379381   180.36858719
 H      9   2   1     0.968958812725   105.85126533   180.46714037
 O      7   1   2     2.749197109324   127.49512707     3.12902235
 H     11   7   1     0.984365712319     4.32512410   177.20472380
 H     11   7   1     0.960942048655    95.54069632   356.01147104
 O     10   9   2     2.116700077506   152.68007369    10.32597382
 H     14  10   9     0.996341962068    64.30535248   346.93230554
 H     14  10   9     0.959594117203   106.00595599    84.89848052

---------------------------
INTERNAL COORDINATES (A.U.)
---------------------------
 C      0   0   0     0.000000000000     0.00000000     0.00000000
 C      1   0   0     2.704967011499     0.00000000     0.00000000
 C      1   2   0     2.861476642480   117.19785668     0.00000000
 H      3   1   2     2.081979603238   109.61056668   239.25063695
 H      3   1   2     2.081515153536   109.53304611   122.09547511
 H      3   1   2     2.070423131165   111.72358446     0.66821795
 O      1   2   3     2.404357212880   123.84710402   180.00274798
 O      2   1   3     2.392187267455   125.74597018     0.44164539
 O      2   1   3     2.599750660917   115.67379381   180.36858719
 H      9   2   1     1.831066791099   105.85126533   180.46714037
 O      7   1   2     5.195229624791   127.49512707     3.12902235
 H     11   7   1     1.860181611906     4.32512410   177.20472380
 H     11   7   1     1.815917302528    95.54069632   356.01147104
 O     10   9   2     3.999983454136   152.68007369    10.32597382
 H     14  10   9     1.882813444042    64.30535248   346.93230554
 H     14  10   9     1.813370081236   106.00595599    84.89848052

---------------------
BASIS SET INFORMATION
---------------------
There are 3 groups of distinct atoms

 Group   1 Type C   : 18s5p2d contracted to 4s3p2d pattern {8811/311/11}
 Group   2 Type H   : 5s2p contracted to 3s2p pattern {311/11}
 Group   3 Type O   : 18s5p2d contracted to 4s3p2d pattern {8811/311/11}

Atom   0C    basis set group =>   1
Atom   1C    basis set group =>   1
Atom   2C    basis set group =>   1
Atom   3H    basis set group =>   2
Atom   4H    basis set group =>   2
Atom   5H    basis set group =>   2
Atom   6O    basis set group =>   3
Atom   7O    basis set group =>   3
Atom   8O    basis set group =>   3
Atom   9H    basis set group =>   2
Atom  10O    basis set group =>   3
Atom  11H    basis set group =>   2
Atom  12H    basis set group =>   2
Atom  13O    basis set group =>   3
Atom  14H    basis set group =>   2
Atom  15H    basis set group =>   2


           ************************************************************
           *        Program running with 8 parallel MPI-processes     *
           *              working on a common directory               *
           ************************************************************
------------------------------------------------------------------------------
                             ORCA STARTUP CALCULATIONS
------------------------------------------------------------------------------
------------------------------------------------------------------------------
                   ___                                                        
                  /   \      - P O W E R E D   B Y -                         
                 /     \                                                     
                 |  |  |   _    _      __       _____    __    __             
                 |  |  |  | |  | |    /  \     |  _  \  |  |  /  |          
                  \  \/   | |  | |   /    \    | | | |  |  | /  /          
                 / \  \   | |__| |  /  /\  \   | |_| |  |  |/  /          
                |  |  |   |  __  | /  /__\  \  |    /   |      \           
                |  |  |   | |  | | |   __   |  |    \   |  |\   \          
                \     /   | |  | | |  |  |  |  | |\  \  |  | \   \       
                 \___/    |_|  |_| |__|  |__|  |_| \__\ |__|  \__/        
                                                                              
                      - O R C A' S   B I G   F R I E N D -                    
                                      &                                       
                       - I N T E G R A L  F E E D E R -                       
                                                                              
 v1 FN, 2020, v2 2021, v3 2022-2024                                           
------------------------------------------------------------------------------


----------------------
SHARK INTEGRAL PACKAGE
----------------------

Number of atoms                             ...     16
Number of basis functions                   ...    304
Number of shells                            ...    160
Maximum angular momentum                    ...      2
Integral batch strategy                     ... SHARK/LIBINT Hybrid
RI-J (if used) integral strategy            ... SPLIT-RIJ (Revised 2003 algorithm where possible)
Printlevel                                  ...      1
Contraction scheme used                     ... PARTIAL GENERAL contraction
Prescreening option                         ... SCHWARTZ
   Thresh                                   ... 2.500e-11
   Tcut                                     ... 2.500e-12
   Tpresel                                  ... 2.500e-12 
Coulomb Range Separation                    ... NOT USED
Exchange Range Separation                   ... Long Range
   Mu parameter                             ... 2.000e-01
   Scaling (regular/separated)              ... 2.220e-01 7.780e-01
Robust (split-)RI terms used:
  metric    (central integrals)             ... YES
  density   (r.h.s.  integrals)             ... YES
  potential (l.h.s.  integrals)             ... YES
Multipole approximations                    ... NOT USED
Finite Nucleus Model                        ... NOT USED
CABS basis                                  ... NOT available
Auxiliary Coulomb fitting basis             ... NOT available
Auxiliary J/K fitting basis                 ... NOT available
Auxiliary Correlation fitting basis         ... NOT available
Auxiliary 'external' fitting basis          ... NOT available

Checking pre-screening integrals            ... done (  0.0 sec) Dimension = 160
Save PGC pre-screening integrals            ... done (  0.0 sec) Dimension = 160
Calculate PGC overlap integrals             ... done (  0.1 sec) Dimension = 112
Calculating pre-screening integrals (ORCA)  ... done (  0.1 sec) Dimension = 112
Shell pair information
Shell pair cut-off parameter TPreSel        ...   2.5e-12
Total number of shell pairs                 ...     12880
Shell pairs after pre-screening             ...     10263
Total number of primitive shell pairs       ...     18576
Primitive shell pairs kept                  ...     13469
          la=0 lb=0:   3700 shell pairs
          la=1 lb=0:   3641 shell pairs
          la=1 lb=1:    785 shell pairs
          la=2 lb=0:   1393 shell pairs
          la=2 lb=1:    613 shell pairs
          la=2 lb=2:    131 shell pairs

Checking whether 4 symmetric matrices of dimension 304 fit in memory
:Max Core in MB      =   8000.00
 MB in use           =     12.48
 MB left             =   7987.52
 MB needed           =      1.41
 Data fit in memory  = YES
Calculating Nuclear repulsion               ... done (  0.0 sec) ENN=    387.608722165145 Eh

Diagonalization of the overlap matrix:
Smallest eigenvalue                        ... 1.770e-05
Time for diagonalization                   ...    0.010 sec
Threshold for overlap eigenvalues          ... 1.000e-07
Number of eigenvalues below threshold      ... 0
Time for construction of square roots      ...    0.008 sec
Total time needed                          ...    0.020 sec

-------------------
DFT GRID GENERATION
-------------------

General Integration Accuracy     IntAcc      ... 4.959
Radial Grid Type                 RadialGrid  ... OptM3 with GC (2021)
Angular Grid (max. ang.)         AngularGrid ... 6 (Lebedev-590)
Angular grid pruning method      GridPruning ... 4 (adaptive)
Weight generation scheme         WeightScheme... mBecke (2022)
Basis function cutoff            BFCut       ... 1.0000e-11
Integration weight cutoff        WCut        ... 1.0000e-14
Partially contracted basis set               ... off
Rotationally invariant grid construction     ... off
Angular grids for H and He will be reduced by one unit
Diffuse basis detected: some atoms will have their outermost
                        angular grid increased by 1.

Total number of grid points                  ...   196699
Total number of batches                      ...     3083
Average number of points per batch           ...       63
Average number of grid points per atom       ...    12294

---------------------
SHARK GRID GENERATION
---------------------

General Integration Accuracy     IntAcc      ... 4.959
Radial Grid Type                 RadialGrid  ... OptM3 with GC (2021)
Angular Grid (max. ang.)         AngularGrid ... 6 (Lebedev-590)
Angular grid pruning method      GridPruning ... 4 (adaptive)
Weight generation scheme         WeightScheme... mBecke (2022)
Basis function cutoff            BFCut       ... 1.0000e-11
Integration weight cutoff        WCut        ... 1.0000e-14
Partially contracted basis set               ... off
Rotationally invariant grid construction     ... off
Angular grids for H and He will be reduced by one unit
Diffuse basis detected: some atoms will have their outermost
                        angular grid increased by 1.
Steep s-basis detected: some atoms will have their radial
                        grid points doubled.

Total number of grid points                  ...   315517
Total number of batches                      ...     4938
Average number of points per batch           ...       63
Average number of grid points per atom       ...    19720
Grids setup in  10.5 sec
Initializing property integral containers    ... done (  0.0 sec)

SHARK setup successfully completed in  10.9 seconds

Maximum memory used throughout the entire STARTUP-calculation: 73.2 MB


           ************************************************************
           *        Program running with 8 parallel MPI-processes     *
           *              working on a common directory               *
           ************************************************************
-------------------------------------------------------------------------------
                                 ORCA GUESS
                   Start orbitals & Density for SCF / CASSCF
-------------------------------------------------------------------------------

------------
SCF SETTINGS
------------
Hamiltonian:
 Density Functional     Method          .... DFT(GTOs)
  Functional kind                       .... Exchange-Correlation
  Functional name                       .... wB97X-D range-separated functional
  Functional family                     .... Hybrid GGA
  Functional refs                              
    [ 0] J.-D. Chai and M. Head-Gordon.,  Phys. Chem. Chem. Phys. 10, 6615-6620 (2008), doi: 10.1039/B810189B
  Fraction of HF Exchange (short range) .... 0.2220
  Fraction of HF Exchange ( int64 range )  .... 1.0000
  Range separation parameter mu         .... 0.2000
  Functional external parameters        .... 18
    Parameter  0 _cx0       =  7.779640e-01 : u^0 coefficient for exchange
    Parameter  1 _cx1       =  6.611600e-01 : u^1 coefficient for exchange
    Parameter  2 _cx2       =  5.745410e-01 : u^2 coefficient for exchange
    Parameter  3 _cx3       = -5.256710e+00 : u^3 coefficient for exchange
    Parameter  4 _cx4       =  1.163860e+01 : u^4 coefficient for exchange
    Parameter  5 _css0      =  1.000000e+00 : u^0 coefficient for same-spin correlation
    Parameter  6 _css1      = -6.905390e+00 : u^1 coefficient for same-spin correlation
    Parameter  7 _css2      =  3.133430e+01 : u^2 coefficient for same-spin correlation
    Parameter  8 _css3      = -5.105330e+01 : u^3 coefficient for same-spin correlation
    Parameter  9 _css4      =  2.644230e+01 : u^4 coefficient for same-spin correlation
    Parameter 10 _cos0      =  1.000000e+00 : u^0 coefficient for opposite-spin correlation
    Parameter 11 _cos1      =  1.794130e+00 : u^1 coefficient for opposite-spin correlation
    Parameter 12 _cos2      = -1.204770e+01 : u^2 coefficient for opposite-spin correlation
    Parameter 13 _cos3      =  1.408470e+01 : u^3 coefficient for opposite-spin correlation
    Parameter 14 _cos4      = -8.508090e+00 : u^4 coefficient for opposite-spin correlation
    Parameter 15 _alpha     =  1.000000e+00 : fraction of HF exchange
    Parameter 16 _beta      = -7.779640e-01 : fraction of short-range exchange
    Parameter 17 _omega     =  2.000000e-01 : range-separation constant
 Long-range corrected/Screened/Range-Separated Hybrid DFT is turned on
   Amount of maximum screened exact exchange              ....  0.777964
   Range separation parameter mu (erf(mu*r12)/r12)        ....  0.200000


General Settings:
 Integral files         IntName         .... t1_freq_2_wat_non
 Hartree-Fock type      HFTyp           .... UHF
 Total Charge           Charge          ....    0
 Multiplicity           Mult            ....    3
 Number of Electrons    NEL             ....   66
 Basis Dimension        Dim             ....  256
 Nuclear Repulsion      ENuc            ....    387.6087221651 Eh

Convergence Acceleration:
 AO-DIIS                CNVDIIS         .... on
   Start iteration      DIISMaxIt       ....    12
   Startup error        DIISStart       ....  0.200000
   # of expansion vecs  DIISMaxEq       ....     5
   Bias factor          DIISBfac        ....   1.050
   Max. coefficient     DIISMaxC        ....  10.000
 MO-DIIS                CNVKDIIS        .... off
 Trust-Rad. Augm. Hess. CNVTRAH         .... auto
   Auto Start mean grad. ratio tolernc. ....  1.125000
   Auto Start start iteration           ....    50
   Auto Start num. interpolation iter.  ....    10
   Max. Number of Micro iterations      ....    24
   Max. Number of Macro iterations      .... Maxiter - #DIIS iter
   Number of Davidson start vectors     ....     2
   Converg. threshold    (grad. norm)   ....   1.000e-05
   Grad. Scal. Fac. for Micro threshold ....   0.100
   Minimum threshold for Micro iter.    ....   1.000e-02
   NR start threshold (gradient norm)   ....   1.000e-04
   Initial trust radius                 ....   0.400
   Minimum AH scaling param. (alpha)    ....   1.000
   Maximum AH scaling param. (alpha)    .... 1000.000
   Quad. conv. algorithm                .... NR
   White noise on init. David. guess    .... on
   Maximum white noise                  ....   0.010
   Pseudo random numbers                .... off
   Inactive MOs                         .... canonical
   Orbital update algorithm             .... Taylor
   Preconditioner                       .... Diag
   Full preconditioner red. dimension   ....   250
 SOSCF                 CNVSOSCF           .... on
   Start iteration     SOSCFMaxIt         ....   150
   Startup grad/error  SOSCFStart         ....  0.003300
   Hessian update      SOSCFHessUp        .... L-BFGS
   Autom. constraints  SOSCFAutoConstrain .... off
 Level Shifting         CNVShift        .... on
   Level shift para.    LevelShift      ....    0.2500
   Turn off err/grad.   ShiftErr        ....    0.0010
 Zerner damping         CNVZerner       .... off
 Static damping         CNVDamp         .... on
   Fraction old density DampFac         ....    0.7000
   Max. Damping (<1)    DampMax         ....    0.9800
   Min. Damping (>=0)   DampMin         ....    0.0000
   Turn off err/grad.   DampErr         ....    0.1000

SCF Procedure:
 Maximum # iterations   MaxIter         ....   125
 SCF integral mode      SCFMode         .... Direct
   Integral package                     .... SHARK and LIBINT hybrid scheme
 Reset frequency        DirectResetFreq ....    20
 Integral Threshold     Thresh          ....  2.500e-11 Eh
 Primitive CutOff       TCut            ....  2.500e-12 Eh

Convergence Tolerance:
 Convergence Check Mode ConvCheckMode   .... Total+1el-Energy
 Convergence forced     ConvForced      .... 0
 Energy Change          TolE            ....  1.000e-08 Eh
 1-El. energy change                    ....  1.000e-05 Eh
 Orbital Gradient       TolG            ....  1.000e-05
 Orbital Rotation angle TolX            ....  1.000e-05
 DIIS Error             TolErr          ....  5.000e-07

------------------------------
INITIAL GUESS: MODEL POTENTIAL
------------------------------
Loading Hartree-Fock densities                     ... done
Calculating cut-offs                               ... done
Initializing the effective Hamiltonian             ... done
Setting up the integral package (SHARK)            ... done
Starting the Coulomb interaction                   ... done (   0.2 sec)
Making the grid                                    ... done (   0.2 sec)
Mapping shells                                     ... done
Starting the XC term evaluation                    ... done (   0.2 sec)
  promolecular density results
     # of electrons  =     65.995031300
     EX+EC           =    -42.403811982
Transforming the Hamiltonian                       ... done (   0.0 sec)
Diagonalizing the Hamiltonian                      ... done (   0.0 sec)
Back transforming the eigenvectors                 ... done (   0.0 sec)
Now organizing SCF variables                       ... done
                      ------------------
                      INITIAL GUESS DONE (   0.7 sec)
                      ------------------
             **** ENERGY FILE WAS UPDATED (t1_freq_2_wat_non.en.tmp) ****
Finished Guess after   1.3 sec
Maximum memory used throughout the entire GUESS-calculation: 16.1 MB


           ************************************************************
           *        Program running with 8 parallel MPI-processes     *
           *              working on a common directory               *
           ************************************************************

-------------------------------------------------------------------------------------------
                                      ORCA LEAN-SCF
                              memory conserving SCF solver
-------------------------------------------------------------------------------------------

----------------------------------------D-I-I-S--------------------------------------------
Iteration    Energy (Eh)           Delta-E    RMSDP     MaxDP     DIISErr   Damp  Time(sec)
-------------------------------------------------------------------------------------------
               ***  Starting incremental Fock matrix formation  ***
    1    -494.9536888158622787     0.00e+00  3.59e-03  6.86e-02  9.66e-02  0.700  13.5
    2    -495.0012417269582556    -4.76e-02  2.87e-03  5.31e-02  5.18e-02  0.700  12.6
                               ***Turning on AO-DIIS***
    3    -495.0266484308422150    -2.54e-02  1.91e-03  3.09e-02  2.53e-02  0.700  12.5
    4    -495.0427313356469767    -1.61e-02  4.53e-03  7.05e-02  2.11e-02  0.000  12.2
    5    -495.0807425708562732    -3.80e-02  7.08e-04  1.47e-02  6.50e-03  0.000  12.3
    6    -495.0818246002233991    -1.08e-03  4.38e-04  9.03e-03  5.52e-03  0.000  12.4
    7    -495.0825742614631508    -7.50e-04  3.81e-04  6.11e-03  4.26e-03  0.000  12.1
    8    -495.0833099652173814    -7.36e-04  3.78e-04  6.12e-03  4.61e-03  0.000  11.8
    9    -495.0840172270505946    -7.07e-04  4.83e-04  6.60e-03  3.71e-03  0.000  11.2
   10    -495.0847686488024237    -7.51e-04  2.03e-04  4.42e-03  4.22e-03  0.000  11.3
                              *** Initializing SOSCF ***
---------------------------------------S-O-S-C-F--------------------------------------
Iteration    Energy (Eh)           Delta-E    RMSDP     MaxDP     MaxGrad    Time(sec)
--------------------------------------------------------------------------------------
   11    -495.0851154787910673    -3.47e-04  6.02e-04  8.07e-03  2.71e-03    10.9
               *** Restarting incremental Fock matrix formation ***
   12    -495.0856697783158324    -5.54e-04  3.36e-04  6.78e-03  6.34e-03    12.8
   13    -495.0856947608950804    -2.50e-05  1.84e-04  3.20e-03  4.44e-03    11.0
   14    -495.0859992380196672    -3.04e-04  2.38e-04  3.40e-03  1.53e-03    11.7
   15    -495.0860953546974770    -9.61e-05  2.58e-04  4.28e-03  1.43e-03    10.9
   16    -495.0861290431328143    -3.37e-05  5.78e-05  1.09e-03  1.06e-03    11.0
   17    -495.0861443682600793    -1.53e-05  2.72e-05  3.92e-04  3.48e-04    10.4
   18    -495.0861455474819195    -1.18e-06  1.58e-05  3.84e-04  1.30e-04    10.1
   19    -495.0861458863852249    -3.39e-07  1.09e-05  1.93e-04  6.10e-05     9.7
   20    -495.0861459764921619    -9.01e-08  1.11e-05  3.44e-04  1.78e-05    11.2
   21    -495.0861459911679958    -1.47e-08  8.32e-06  2.40e-04  8.05e-06     9.4
   22    -495.0861459940413170    -2.87e-09  9.37e-06  2.08e-04  3.03e-06     8.6
                 **** Energy Check signals convergence ****

               *****************************************************
               *                     SUCCESS                       *
               *           SCF CONVERGED AFTER  22 CYCLES          *
               *****************************************************

             **** ENERGY FILE WAS UPDATED (t1_freq_2_wat_non.en.tmp) ****

----------------
TOTAL SCF ENERGY
----------------

Total Energy       :       -495.08614599400892 Eh          -13471.97893 eV

Components:
Nuclear Repulsion  :        387.60872216514474 Eh           10547.36955 eV
Electronic Energy  :       -882.69486815915366 Eh          -24019.34848 eV
One Electron Energy:      -1446.14056627380933 Eh          -39351.48540 eV
Two Electron Energy:        563.44569811465567 Eh           15332.13692 eV

Virial components:
Potential Energy   :       -987.15633232575578 Eh          -26861.88943 eV
Kinetic Energy     :        492.07018633174692 Eh           13389.91050 eV
Virial Ratio       :          2.00612912496233

DFT components:
N(Alpha)           :       34.000026805055 electrons
N(Beta)            :       32.000038546094 electrons
N(Total)           :       66.000065351149 electrons
E(XC)              :      -43.157489942564 Eh       

---------------
SCF CONVERGENCE
---------------

  Last Energy change         ...    2.8733e-09  Tolerance :   1.0000e-08
  Last MAX-Density change    ...    2.0809e-04  Tolerance :   1.0000e-07
  Last RMS-Density change    ...    9.3709e-06  Tolerance :   5.0000e-09
  Last DIIS Error            ...    2.7128e-03  Tolerance :   5.0000e-07
  Last Orbital Gradient      ...    3.0326e-06  Tolerance :   1.0000e-05
  Last Orbital Rotation      ...    1.0711e-05  Tolerance :   1.0000e-05


----------------------
UHF SPIN CONTAMINATION
----------------------

Warning: in a DFT calculation there is little theoretical justification to 
         calculate <S**2> as in Hartree-Fock theory. We will do it anyways
         but you should keep in mind that the values have only limited relevance

Expectation value of <S**2>     :     2.010235
Ideal value S*(S+1) for S=1.0   :     2.000000
Deviation                       :     0.010235

----------------
ORBITAL ENERGIES
----------------
                 SPIN UP ORBITALS
  NO   OCC          E(Eh)            E(eV) 
   0   1.0000     -19.423863      -528.5502 
   1   1.0000     -19.345834      -526.4269 
   2   1.0000     -19.307149      -525.3742 
   3   1.0000     -19.270328      -524.3723 
   4   1.0000     -19.261887      -524.1426 
   5   1.0000     -10.480224      -285.1814 
   6   1.0000     -10.434223      -283.9296 
   7   1.0000     -10.360792      -281.9315 
   8   1.0000      -1.273415       -34.6514 
   9   1.0000      -1.235196       -33.6114 
  10   1.0000      -1.147628       -31.2286 
  11   1.0000      -1.107985       -30.1498 
  12   1.0000      -1.101380       -29.9701 
  13   1.0000      -0.926838       -25.2206 
  14   1.0000      -0.842455       -22.9244 
  15   1.0000      -0.712749       -19.3949 
  16   1.0000      -0.677986       -18.4489 
  17   1.0000      -0.644582       -17.5400 
  18   1.0000      -0.625658       -17.0250 
  19   1.0000      -0.618584       -16.8325 
  20   1.0000      -0.605040       -16.4640 
  21   1.0000      -0.590076       -16.0568 
  22   1.0000      -0.556504       -15.1432 
  23   1.0000      -0.538898       -14.6642 
  24   1.0000      -0.530988       -14.4489 
  25   1.0000      -0.529951       -14.4207 
  26   1.0000      -0.509039       -13.8516 
  27   1.0000      -0.479056       -13.0358 
  28   1.0000      -0.463629       -12.6160 
  29   1.0000      -0.451427       -12.2839 
  30   1.0000      -0.414848       -11.2886 
  31   1.0000      -0.401823       -10.9342 
  32   1.0000      -0.389304       -10.5935 
  33   1.0000      -0.316816        -8.6210 
  34   0.0000       0.024503         0.6667 
  35   0.0000       0.039378         1.0715 
  36   0.0000       0.047585         1.2948 
  37   0.0000       0.052196         1.4203 
  38   0.0000       0.062406         1.6982 
  39   0.0000       0.072741         1.9794 
  40   0.0000       0.073621         2.0033 
  41   0.0000       0.083425         2.2701 
  42   0.0000       0.092853         2.5267 
  43   0.0000       0.103100         2.8055 
  44   0.0000       0.113625         3.0919 

                 SPIN DOWN ORBITALS
  NO   OCC          E(Eh)            E(eV) 
   0   1.0000     -19.400365      -527.9108 
   1   1.0000     -19.344549      -526.3919 
   2   1.0000     -19.300740      -525.1998 
   3   1.0000     -19.270230      -524.3696 
   4   1.0000     -19.260955      -524.1172 
   5   1.0000     -10.478172      -285.1255 
   6   1.0000     -10.427950      -283.7590 
   7   1.0000     -10.359423      -281.8942 
   8   1.0000      -1.237780       -33.6817 
   9   1.0000      -1.204111       -32.7655 
  10   1.0000      -1.136496       -30.9256 
  11   1.0000      -1.107371       -30.1331 
  12   1.0000      -1.098487       -29.8914 
  13   1.0000      -0.899469       -24.4758 
  14   1.0000      -0.821100       -22.3433 
  15   1.0000      -0.692567       -18.8457 
  16   1.0000      -0.657237       -17.8843 
  17   1.0000      -0.625124       -17.0105 
  18   1.0000      -0.612019       -16.6539 
  19   1.0000      -0.587758       -15.9937 
  20   1.0000      -0.583759       -15.8849 
  21   1.0000      -0.562123       -15.2961 
  22   1.0000      -0.538582       -14.6556 
  23   1.0000      -0.533919       -14.5287 
  24   1.0000      -0.517890       -14.0925 
  25   1.0000      -0.496061       -13.4985 
  26   1.0000      -0.479795       -13.0559 
  27   1.0000      -0.468050       -12.7363 
  28   1.0000      -0.426862       -11.6155 
  29   1.0000      -0.408040       -11.1033 
  30   1.0000      -0.397609       -10.8195 
  31   1.0000      -0.387675       -10.5492 
  32   0.0000      -0.172740        -4.7005 
  33   0.0000      -0.059541        -1.6202 
  34   0.0000       0.027052         0.7361 
  35   0.0000       0.040382         1.0989 
  36   0.0000       0.051926         1.4130 
  37   0.0000       0.053426         1.4538 
  38   0.0000       0.063931         1.7396 
  39   0.0000       0.074517         2.0277 
  40   0.0000       0.083564         2.2739 
  41   0.0000       0.093111         2.5337 
  42   0.0000       0.103508         2.8166 
*Only the first 10 virtual orbitals were printed.

                    ********************************
                    * MULLIKEN POPULATION ANALYSIS *
                    ********************************

--------------------------------------------
MULLIKEN ATOMIC CHARGES AND SPIN POPULATIONS
--------------------------------------------
   0 C :    0.067876    0.443023
   1 C :    1.048902    0.124364
   2 C :    0.537615    0.049849
   3 H :   -0.012510    0.018549
   4 H :   -0.017708    0.017990
   5 H :   -0.242241    0.002797
   6 O :   -0.485570    1.005979
   7 O :   -0.670756    0.266570
   8 O :   -0.537220    0.053195
   9 H :    0.183335   -0.001730
  10 O :   -0.259977    0.038060
  11 H :    0.180034   -0.015786
  12 H :    0.143028   -0.002497
  13 O :   -0.317891    0.003266
  14 H :    0.265272   -0.003410
  15 H :    0.117809   -0.000216
Sum of atomic charges         :   -0.0000000
Sum of atomic spin populations:    2.0000000

-----------------------------------------------------
MULLIKEN REDUCED ORBITAL CHARGES AND SPIN POPULATIONS
-----------------------------------------------------
CHARGE
  0 C s       :     3.249048  s :     3.249048
      pz      :     0.928512  p :     2.482920
      px      :     0.711852
      py      :     0.842556
      dz2     :     0.031829  d :     0.200156
      dxz     :     0.026990
      dyz     :     0.057135
      dx2y2   :     0.060605
      dxy     :     0.023598

  1 C s       :     2.963084  s :     2.963084
      pz      :     0.745928  p :     1.745575
      px      :     0.559114
      py      :     0.440533
      dz2     :     0.006343  d :     0.242439
      dxz     :     0.048244
      dyz     :     0.039717
      dx2y2   :     0.126290
      dxy     :     0.021845

  2 C s       :     3.030601  s :     3.030601
      pz      :     0.884094  p :     2.480842
      px      :     0.647986
      py      :     0.948762
      dz2     :    -0.013160  d :    -0.049058
      dxz     :     0.004740
      dyz     :    -0.016528
      dx2y2   :    -0.000901
      dxy     :    -0.023209

  3 H s       :     1.024437  s :     1.024437
      pz      :    -0.002756  p :    -0.011927
      px      :    -0.002572
      py      :    -0.006599

  4 H s       :     1.030581  s :     1.030581
      pz      :     0.008978  p :    -0.012874
      px      :    -0.000020
      py      :    -0.021832

  5 H s       :     1.218017  s :     1.218017
      pz      :    -0.006055  p :     0.024224
      px      :     0.004612
      py      :     0.025668

  6 O s       :     4.135244  s :     4.135244
      pz      :     1.686141  p :     4.308879
      px      :     1.336928
      py      :     1.285810
      dz2     :     0.002314  d :     0.041447
      dxz     :     0.014039
      dyz     :     0.003216
      dx2y2   :     0.010680
      dxy     :     0.011199

  7 O s       :     4.063363  s :     4.063363
      pz      :     1.556556  p :     4.571733
      px      :     1.353180
      py      :     1.661997
      dz2     :     0.002497  d :     0.035660
      dxz     :     0.013565
      dyz     :     0.002360
      dx2y2   :     0.007808
      dxy     :     0.009430

  8 O s       :     3.991444  s :     3.991444
      pz      :     1.737914  p :     4.531032
      px      :     1.529062
      py      :     1.264056
      dz2     :     0.002190  d :     0.014743
      dxz     :     0.008859
      dyz     :     0.000829
      dx2y2   :     0.000083
      dxy     :     0.002783

  9 H s       :     0.718388  s :     0.718388
      pz      :     0.029153  p :     0.098277
      px      :     0.025410
      py      :     0.043714

 10 O s       :     3.800900  s :     3.800900
      pz      :     1.822878  p :     4.466966
      px      :     1.422275
      py      :     1.221813
      dz2     :    -0.000921  d :    -0.007889
      dxz     :     0.001442
      dyz     :    -0.000915
      dx2y2   :    -0.001769
      dxy     :    -0.005727

 11 H s       :     0.758580  s :     0.758580
      pz      :     0.042786  p :     0.061386
      px      :     0.006718
      py      :     0.011881

 12 H s       :     0.762792  s :     0.762792
      pz      :     0.041019  p :     0.094180
      px      :     0.032029
      py      :     0.021131

 13 O s       :     3.781017  s :     3.781017
      pz      :     1.220356  p :     4.543877
      px      :     1.841127
      py      :     1.482394
      dz2     :    -0.007629  d :    -0.007003
      dxz     :    -0.000529
      dyz     :    -0.001062
      dx2y2   :    -0.000006
      dxy     :     0.002222

 14 H s       :     0.664284  s :     0.664284
      pz      :     0.027043  p :     0.070444
      px      :     0.023813
      py      :     0.019588

 15 H s       :     0.769928  s :     0.769928
      pz      :     0.037270  p :     0.112262
      px      :     0.042954
      py      :     0.032039


SPIN
  0 C s       :    -0.038076  s :    -0.038076
      pz      :     0.416984  p :     0.483513
      px      :     0.003828
      py      :     0.062701
      dz2     :     0.000501  d :    -0.002414
      dxz     :     0.004838
      dyz     :     0.009605
      dx2y2   :    -0.007091
      dxy     :    -0.010267

  1 C s       :    -0.004188  s :    -0.004188
      pz      :     0.066587  p :     0.105053
      px      :     0.002504
      py      :     0.035962
      dz2     :     0.004498  d :     0.023498
      dxz     :    -0.000550
      dyz     :     0.015068
      dx2y2   :     0.004702
      dxy     :    -0.000219

  2 C s       :    -0.001715  s :    -0.001715
      pz      :     0.000881  p :     0.047441
      px      :     0.045989
      py      :     0.000571
      dz2     :    -0.001222  d :     0.004122
      dxz     :     0.001706
      dyz     :    -0.003747
      dx2y2   :     0.004835
      dxy     :     0.002550

  3 H s       :     0.021062  s :     0.021062
      pz      :     0.001064  p :    -0.002513
      px      :     0.000274
      py      :    -0.003851

  4 H s       :     0.020629  s :     0.020629
      pz      :    -0.002215  p :    -0.002639
      px      :     0.000853
      py      :    -0.001277

  5 H s       :     0.002507  s :     0.002507
      pz      :     0.000136  p :     0.000289
      px      :     0.000650
      py      :    -0.000497

  6 O s       :     0.041409  s :     0.041409
      pz      :     0.237979  p :     0.963444
      px      :     0.124997
      py      :     0.600468
      dz2     :     0.000026  d :     0.001125
      dxz     :     0.002252
      dyz     :     0.000064
      dx2y2   :    -0.000810
      dxy     :    -0.000406

  7 O s       :     0.015815  s :     0.015815
      pz      :     0.172707  p :     0.251747
      px      :     0.006007
      py      :     0.073033
      dz2     :     0.000130  d :    -0.000992
      dxz     :    -0.000804
      dyz     :    -0.000009
      dx2y2   :    -0.000065
      dxy     :    -0.000244

  8 O s       :     0.005047  s :     0.005047
      pz      :     0.028239  p :     0.048008
      px      :     0.012461
      py      :     0.007308
      dz2     :    -0.000028  d :     0.000140
      dxz     :    -0.000097
      dyz     :    -0.000006
      dx2y2   :    -0.000317
      dxy     :     0.000587

  9 H s       :    -0.002831  s :    -0.002831
      pz      :     0.001331  p :     0.001101
      px      :    -0.000245
      py      :     0.000015

 10 O s       :     0.000412  s :     0.000412
      pz      :     0.002825  p :     0.037494
      px      :     0.030785
      py      :     0.003884
      dz2     :     0.000014  d :     0.000153
      dxz     :     0.000017
      dyz     :     0.000019
      dx2y2   :    -0.000051
      dxy     :     0.000155

 11 H s       :    -0.011520  s :    -0.011520
      pz      :    -0.000449  p :    -0.004266
      px      :    -0.003256
      py      :    -0.000561

 12 H s       :    -0.002677  s :    -0.002677
      pz      :    -0.000152  p :     0.000181
      px      :     0.000593
      py      :    -0.000261

 13 O s       :    -0.000322  s :    -0.000322
      pz      :     0.000086  p :     0.003535
      px      :     0.000012
      py      :     0.003437
      dz2     :    -0.000002  d :     0.000053
      dxz     :     0.000002
      dyz     :     0.000038
      dx2y2   :     0.000010
      dxy     :     0.000006

 14 H s       :    -0.002416  s :    -0.002416
      pz      :     0.000696  p :    -0.000995
      px      :    -0.000220
      py      :    -0.001470

 15 H s       :    -0.000087  s :    -0.000087
      pz      :    -0.000063  p :    -0.000130
      px      :    -0.000012
      py      :    -0.000054



                     *******************************
                     * LOEWDIN POPULATION ANALYSIS *
                     *******************************

-------------------------------------------
LOEWDIN ATOMIC CHARGES AND SPIN POPULATIONS
-------------------------------------------
   0 C :   -0.267971    0.447437
   1 C :   -0.336963    0.178944
   2 C :    0.208412    0.113726
   3 H :    0.009336    0.014456
   4 H :    0.009200    0.013946
   5 H :    0.001699    0.010406
   6 O :    0.293923    0.897139
   7 O :    0.114703    0.235275
   8 O :    0.265973    0.047848
   9 H :   -0.084169    0.001623
  10 O :    0.217486    0.031902
  11 H :   -0.206672    0.001445
  12 H :   -0.131370    0.000831
  13 O :    0.222443    0.003428
  14 H :   -0.214931    0.001395
  15 H :   -0.101100    0.000197

----------------------------------------------------
LOEWDIN REDUCED ORBITAL CHARGES AND SPIN POPULATIONS
----------------------------------------------------
CHARGE
  0 C s       :     2.589417  s :     2.589417
      pz      :     0.783062  p :     2.580489
      px      :     0.886000
      py      :     0.911427
      dz2     :     0.118986  d :     1.098065
      dxz     :     0.203693
      dyz     :     0.147975
      dx2y2   :     0.316613
      dxy     :     0.310797

  1 C s       :     2.564539  s :     2.564539
      pz      :     0.705783  p :     2.432745
      px      :     0.869324
      py      :     0.857638
      dz2     :     0.134367  d :     1.339679
      dxz     :     0.252713
      dyz     :     0.163167
      dx2y2   :     0.398382
      dxy     :     0.391049

  2 C s       :     2.606189  s :     2.606189
      pz      :     0.945905  p :     2.763051
      px      :     0.890727
      py      :     0.926420
      dz2     :     0.082792  d :     0.422348
      dxz     :     0.050587
      dyz     :     0.090386
      dx2y2   :     0.094984
      dxy     :     0.103599

  3 H s       :     0.718174  s :     0.718174
      pz      :     0.096537  p :     0.272489
      px      :     0.065116
      py      :     0.110836

  4 H s       :     0.718118  s :     0.718118
      pz      :     0.131377  p :     0.272682
      px      :     0.066103
      py      :     0.075203

  5 H s       :     0.704040  s :     0.704040
      pz      :     0.075130  p :     0.294261
      px      :     0.114555
      py      :     0.104576

  6 O s       :     3.382045  s :     3.382045
      pz      :     1.529767  p :     4.119334
      px      :     1.393015
      py      :     1.196551
      dz2     :     0.021509  d :     0.204698
      dxz     :     0.049532
      dyz     :     0.009446
      dx2y2   :     0.061579
      dxy     :     0.062633

  7 O s       :     3.342074  s :     3.342074
      pz      :     1.417669  p :     4.361594
      px      :     1.445997
      py      :     1.497928
      dz2     :     0.020265  d :     0.181630
      dxz     :     0.035204
      dyz     :     0.013142
      dx2y2   :     0.058701
      dxy     :     0.054317

  8 O s       :     3.220400  s :     3.220400
      pz      :     1.560855  p :     4.337353
      px      :     1.472887
      py      :     1.303611
      dz2     :     0.021357  d :     0.176274
      dxz     :     0.027765
      dyz     :     0.019714
      dx2y2   :     0.052369
      dxy     :     0.055069

  9 H s       :     0.587175  s :     0.587175
      pz      :     0.124693  p :     0.496994
      px      :     0.153199
      py      :     0.219103

 10 O s       :     3.264633  s :     3.264633
      pz      :     1.668154  p :     4.463833
      px      :     1.463229
      py      :     1.332450
      dz2     :     0.007443  d :     0.054049
      dxz     :     0.005341
      dyz     :     0.003374
      dx2y2   :     0.011665
      dxy     :     0.026226

 11 H s       :     0.611231  s :     0.611231
      pz      :     0.160974  p :     0.595441
      px      :     0.278619
      py      :     0.155848

 12 H s       :     0.629917  s :     0.629917
      pz      :     0.144503  p :     0.501453
      px      :     0.166381
      py      :     0.190568

 13 O s       :     3.253727  s :     3.253727
      pz      :     1.324550  p :     4.468641
      px      :     1.650323
      py      :     1.493768
      dz2     :     0.025577  d :     0.055189
      dxz     :     0.003181
      dyz     :     0.011318
      dx2y2   :     0.009843
      dxy     :     0.005270

 14 H s       :     0.583821  s :     0.583821
      pz      :     0.142869  p :     0.631110
      px      :     0.153425
      py      :     0.334816

 15 H s       :     0.634989  s :     0.634989
      pz      :     0.207415  p :     0.466110
      px      :     0.139363
      py      :     0.119332


SPIN
  0 C s       :     0.002870  s :     0.002870
      pz      :     0.279506  p :     0.316648
      px      :    -0.002543
      py      :     0.039685
      dz2     :     0.004532  d :     0.127919
      dxz     :     0.019351
      dyz     :     0.022224
      dx2y2   :     0.040542
      dxy     :     0.041270

  1 C s       :     0.005017  s :     0.005017
      pz      :     0.054706  p :     0.080210
      px      :    -0.000218
      py      :     0.025721
      dz2     :     0.017832  d :     0.093718
      dxz     :     0.007945
      dyz     :     0.055377
      dx2y2   :     0.012379
      dxy     :     0.000184

  2 C s       :     0.003125  s :     0.003125
      pz      :     0.002236  p :     0.057588
      px      :     0.049050
      py      :     0.006302
      dz2     :     0.012714  d :     0.053014
      dxz     :     0.012246
      dyz     :     0.021652
      dx2y2   :     0.002581
      dxy     :     0.003821

  3 H s       :     0.011118  s :     0.011118
      pz      :     0.000033  p :     0.003339
      px      :     0.001160
      py      :     0.002145

  4 H s       :     0.010760  s :     0.010760
      pz      :     0.001338  p :     0.003186
      px      :     0.001067
      py      :     0.000781

  5 H s       :     0.007394  s :     0.007394
      pz      :     0.000093  p :     0.003011
      px      :     0.000548
      py      :     0.002370

  6 O s       :     0.014961  s :     0.014961
      pz      :     0.224378  p :     0.841319
      px      :     0.099386
      py      :     0.517555
      dz2     :     0.000323  d :     0.040859
      dxz     :     0.027475
      dyz     :     0.005077
      dx2y2   :     0.003911
      dxy     :     0.004073

  7 O s       :     0.004418  s :     0.004418
      pz      :     0.154042  p :     0.221530
      px      :     0.003709
      py      :     0.063779
      dz2     :     0.000291  d :     0.009327
      dxz     :     0.005829
      dyz     :     0.001329
      dx2y2   :     0.000522
      dxy     :     0.001356

  8 O s       :     0.000203  s :     0.000203
      pz      :     0.027217  p :     0.042326
      px      :     0.011382
      py      :     0.003727
      dz2     :     0.000885  d :     0.005320
      dxz     :     0.002024
      dyz     :     0.001483
      dx2y2   :    -0.000431
      dxy     :     0.001359

  9 H s       :    -0.001025  s :    -0.001025
      pz      :     0.002154  p :     0.002647
      px      :     0.000049
      py      :     0.000444

 10 O s       :     0.000352  s :     0.000352
      pz      :     0.002703  p :     0.032224
      px      :     0.026796
      py      :     0.002725
      dz2     :    -0.000125  d :    -0.000674
      dxz     :    -0.000081
      dyz     :    -0.000042
      dx2y2   :    -0.000087
      dxy     :    -0.000340

 11 H s       :    -0.003612  s :    -0.003612
      pz      :     0.000632  p :     0.005057
      px      :     0.004436
      py      :    -0.000012

 12 H s       :    -0.000847  s :    -0.000847
      pz      :    -0.000215  p :     0.001678
      px      :     0.001556
      py      :     0.000337

 13 O s       :     0.000022  s :     0.000022
      pz      :     0.000520  p :     0.003433
      px      :    -0.000070
      py      :     0.002983
      dz2     :     0.000032  d :    -0.000027
      dxz     :    -0.000004
      dyz     :    -0.000006
      dx2y2   :    -0.000029
      dxy     :    -0.000020

 14 H s       :    -0.000555  s :    -0.000555
      pz      :     0.001459  p :     0.001950
      px      :    -0.000123
      py      :     0.000614

 15 H s       :     0.000103  s :     0.000103
      pz      :     0.000041  p :     0.000094
      px      :    -0.000028
      py      :     0.000080



                      *****************************
                      * MAYER POPULATION ANALYSIS *
                      *****************************

  NA   - Mulliken gross atomic population
  ZA   - Total nuclear charge
  QA   - Mulliken gross atomic charge
  VA   - Mayer's total valence
  BVA  - Mayer's bonded valence
  FA   - Mayer's free valence

  ATOM       NA         ZA         QA         VA         BVA        FA
  0 C      5.9321     6.0000     0.0679     3.9587     3.6955     0.2632
  1 C      4.9511     6.0000     1.0489     2.2836     2.2670     0.0166
  2 C      5.4624     6.0000     0.5376     3.8136     3.8074     0.0063
  3 H      1.0125     1.0000    -0.0125     0.8569     0.8564     0.0005
  4 H      1.0177     1.0000    -0.0177     0.8527     0.8522     0.0005
  5 H      1.2422     1.0000    -0.2422     0.9025     0.9025     0.0000
  6 O      8.4856     8.0000    -0.4856     1.8182     1.1755     0.6428
  7 O      8.6708     8.0000    -0.6708     1.7583     1.7173     0.0410
  8 O      8.5372     8.0000    -0.5372     1.7453     1.7438     0.0015
  9 H      0.8167     1.0000     0.1833     1.0689     1.0688     0.0000
 10 O      8.2600     8.0000    -0.2600     1.9520     1.9507     0.0012
 11 H      0.8200     1.0000     0.1800     0.9372     0.9368     0.0004
 12 H      0.8570     1.0000     0.1430     0.9973     0.9973     0.0000
 13 O      8.3179     8.0000    -0.3179     1.9955     1.9955     0.0000
 14 H      0.7347     1.0000     0.2653     0.9020     0.9020     0.0000
 15 H      0.8822     1.0000     0.1178     1.0617     1.0617    -0.0000

  Mayer bond orders larger than 0.100000
B(  0-C ,  1-C ) :   0.7523 B(  0-C ,  2-C ) :   1.3027 B(  0-C ,  3-H ) :   0.1374 
B(  0-C ,  4-H ) :   0.1294 B(  0-C ,  5-H ) :   0.2705 B(  0-C ,  6-O ) :   0.9284 
B(  0-C ,  8-O ) :   0.1579 B(  1-C ,  2-C ) :  -0.1519 B(  1-C ,  5-H ) :  -0.1818 
B(  1-C ,  7-O ) :   1.3706 B(  1-C ,  8-O ) :   0.4974 B(  2-C ,  3-H ) :   0.8588 
B(  2-C ,  4-H ) :   0.8635 B(  2-C ,  5-H ) :   0.8633 B(  7-O , 14-H ) :   0.1057 
B(  8-O ,  9-H ) :   0.9468 B(  9-H , 13-O ) :   0.1190 B( 10-O , 11-H ) :   0.9280 
B( 10-O , 12-H ) :   1.0026 B( 13-O , 14-H ) :   0.8043 B( 13-O , 15-H ) :   1.0698 


-------
TIMINGS
-------

Total SCF time: 0 days 0 hours 4 min 19 sec 

Total time                  ....     259.569 sec
Sum of individual times     ....     250.013 sec  ( 96.3%)

SCF preparation             ....       0.566 sec  (  0.2%)
Fock matrix formation       ....     247.231 sec  ( 95.2%)
  Startup                   ....       0.100 sec  (  0.0% of F)
  Coulomb+Exchange Fock     ....     223.243 sec  ( 90.3% of F)
  XC integration            ....      31.889 sec  ( 12.9% of F)
    XC Preparation          ....       0.000 sec  (  0.0% of XC)
    Basis function eval.    ....       7.816 sec  ( 24.5% of XC)
    Density eval.           ....       7.875 sec  ( 24.7% of XC)
    XC-Functional eval.     ....       1.843 sec  (  5.8% of XC)
    XC-Potential eval.      ....      11.674 sec  ( 36.6% of XC)
Diagonalization             ....       0.000 sec  (  0.0%)
Density matrix formation    ....       0.402 sec  (  0.2%)
Total Energy calculation    ....       0.131 sec  (  0.1%)
Population analysis         ....       0.064 sec  (  0.0%)
Orbital Transformation      ....       0.121 sec  (  0.0%)
Orbital Orthonormalization  ....       0.000 sec  (  0.0%)
DIIS solution               ....       0.826 sec  (  0.3%)
SOSCF solution              ....       0.672 sec  (  0.3%)
Finished LeanSCF after 259.6 sec

Maximum memory used throughout the entire LEANSCF-calculation: 19.4 MB


           ************************************************************
           *        Program running with 8 parallel MPI-processes     *
           *              working on a common directory               *
           ************************************************************

------------------------------------------------------------------------------
                         ORCA PROPERTY INTEGRAL CALCULATIONS
------------------------------------------------------------------------------

GBWName                                   ... t1_freq_2_wat_non.gbw
Number of atoms                           ...     16
Number of basis functions                 ...    304
Max core memory                           ...   8000 MB

Dipole integrals                          ... YES
Quadrupole integrals                      ...  NO
Linear momentum integrals                 ...  NO
Angular momentum integrals                ...  NO
Higher moments length integrals           ...  NO
Higher moments velocity integrals         ...  NO
Kinetic energy integrals                  ...  NO
GIAO right hand sides                     ...  NO
GIAO dipole derivative integrals          ...  NO
SOC integrals                             ...  NO
EPR diamagnetic integrals (GIAO)          ...  NO
EPR gauge integrals                       ...  NO
Field gradient integrals                  ...  NO (   0 nuclei)
Spin-dipole/Fermi contact integrals       ...  NO (   0 nuclei)
Contact density integrals                 ...  NO (   0 nuclei)
Nucleus-orbit integrals                   ...  NO (   0 nuclei)
Geometric perturbations                   ... YES (  16 nuclei)

Choice of electric origin   ... Center of mass
Position of electric origin ... ( -1.9014,  3.2590,  0.2045) 
Choice of magnetic origin   ... GIAO
Position of magnetic origin ... (  0.0000,  0.0000,  0.0000) 

Calculating integrals                     ... Electric Dipole (Length)     done (  0.0 sec)
Calculating integrals                     ... Geometrical perturbation right hand sides

-----------------------
GEOMETRIC PERTURBATIONS (16 nuclei)
-----------------------

MaxCore                            ...   8000 MB
Number of batches                  ...      1

BATCH   0: Atoms    0 -   15 ( 48 perturbations)
   => H(core) and overlap derivative integrals     ... done (     0.3 sec)
   => Making and storing internal U-coefficients   ... done (     0.0 sec)
   => Exact two electron derivative integrals      ... done (   104.2 sec)
   => Exact two-electron response operators        ... done (   446.4 sec)
   => XC derivative integrals                      ... done (   168.3 sec)
   => XC response operators                        ... done (    42.5 sec)
   => Completing and storing right hand sides      ... done (     0.0 sec)
   => Total time for right hand sides = 658.8 sec

  geometrical perturbations done (658.8 sec)

Property integrals calculated in 658.9 sec

Maximum memory used throughout the entire PROPINT-calculation: 142.9 MB

-------------------------   --------------------
FINAL SINGLE POINT ENERGY      -495.086145994009
-------------------------   --------------------



           ************************************************************
           *        Program running with 8 parallel MPI-processes     *
           *              working on a common directory               *
           ************************************************************
------------------------------------------------------------------------------
                         ORCA SCF GRADIENT CALCULATION
------------------------------------------------------------------------------

Nuc. rep. gradient        (SHARK) ... done (  0.0 sec)
HCore & Overlap gradient  (SHARK) ... done (  0.1 sec)
Two-electron gradient     (SHARK) ... done ( 32.7 sec)
XC gradient                       ... done (  6.9 sec)

------------------
CARTESIAN GRADIENT
------------------

   1   C   :   -0.025409096    0.003996783    0.000897281
   2   C   :   -0.015716313    0.054162792   -0.015875930
   3   C   :    0.004335000   -0.017034340    0.004950078
   4   H   :    0.000291936    0.001777328    0.000469979
   5   H   :   -0.000015594    0.001142042   -0.001363044
   6   H   :    0.005778679    0.006340514   -0.002472052
   7   O   :   -0.000514945   -0.003257566    0.001595551
   8   O   :    0.034751599   -0.036664866    0.009676225
   9   O   :   -0.010589505   -0.024928963    0.008916874
  10   H   :   -0.001713502    0.008342563   -0.002780491
  11   O   :   -0.018314337   -0.007439006    0.004872164
  12   H   :    0.023018213    0.005763037   -0.005084010
  13   H   :    0.003642804    0.003611157   -0.001554511
  14   O   :    0.003147523   -0.015610733    0.006998046
  15   H   :   -0.001746201    0.017846431   -0.007437087
  16   H   :   -0.000946261    0.001952828   -0.001809073

Difference to translation invariance:
           :    0.0000000000   -0.0000000000   -0.0000000000

Difference to rotation invariance:
           :    0.0000426910    0.0000530330   -0.0000244965

Norm of the Cartesian gradient     ...    0.0989281938
RMS gradient                       ...    0.0142790548
MAX gradient                       ...    0.0541627917

-------
TIMINGS
-------

Total SCF gradient time     ....       39.704 sec

Densities                   ....       0.002 sec  (  0.0%)
One electron gradient       ....       0.117 sec  (  0.3%)
Two electron gradient       ....      32.661 sec  ( 82.3%)
XC gradient                 ....       6.923 sec  ( 17.4%)

Maximum memory used throughout the entire SCFGRAD-calculation: 39.3 MB


           ************************************************************
           *        Program running with 8 parallel MPI-processes     *
           *              working on a common directory               *
           ************************************************************
------------------------------------------------------------------------------
                            ORCA SCF RESPONSE CALCULATION
------------------------------------------------------------------------------

GBWName                                 ... t1_freq_2_wat_non.gbw
Number of atoms                         ...     16
Number of basis functions               ...    304
Max core memory                         ...   8000 MB

Electric field perturbation             ...  NO
Quadrupolar field perturbation          ...  NO
Magnetic field perturbation (no GIAO)   ...  NO
Magnetic field perturbation (with GIAO) ...  NO
Linear momentum (velocity) perturbation ...  NO
Spin-orbit coupling perturbation        ...  NO
Choice of electric origin               ... Center of mass
Position of electric origin             ...    -1.901408     3.259008     0.204545
Choice of magnetic origin               ... GIAO
Position of magnetic origin             ...     0.000000     0.000000     0.000000
Nuclear geometric perturbations         ... YES (  48 perturbations)
Nucleus-orbit perturbations             ...  NO (   0 perturbations)
Spin-dipole/Fermi contact perturbations ...  NO (   0 perturbations)

Total number of real perturbations      ...     48
Total number of imaginary perturbations ...      0
Total number of triplet perturbations   ...      0
Total number of SOC perturbations       ...      0

Using XC Grid                  ... (t1_freq_2_wat_non.grid_cpscf.tmp) 
Recalculating density on grid  ... (t1_freq_2_wat_non.grho_cpscf0.tmp) done
Calculating the xc-kernel      ... (t1_freq_2_wat_non.fxc_cpscf0.tmp) done

                                **********************
                                * REAL PERTURBATIONS *
                                **********************



-------------------
SHARK CP-SCF DRIVER
-------------------

Dimension of the orbital basis          ...    256
Dimension of the CPSCF-problem          ...  14716
Number of operators                     ...      2
Max. number of iterations               ...    128
Convergence Tolerance                   ... 1.0e-04
Number of perturbations                 ...     48
Perturbation type                       ... REAL

----------------------------
POPLE LINEAR EQUATION SOLVER
----------------------------

  ITERATION   0:   ||err||_max =   3.6618e-01 ( 809.1 sec   0/ 48 done)
  ITERATION   1:   ||err||_max =   1.8594e-01 ( 832.2 sec   0/ 48 done)
  ITERATION   2:   ||err||_max =   1.6308e-01 ( 838.0 sec   0/ 48 done)
  ITERATION   3:   ||err||_max =   6.4181e-02 ( 825.5 sec   0/ 48 done)
  ITERATION   4:   ||err||_max =   4.6024e-02 ( 818.0 sec   0/ 48 done)
  ITERATION   5:   ||err||_max =   2.6084e-02 ( 777.8 sec   0/ 48 done)
  ITERATION   6:   ||err||_max =   9.8667e-03 ( 785.1 sec   1/ 48 done)
  ITERATION   7:   ||err||_max =   5.4219e-03 ( 742.4 sec   1/ 48 done)
  ITERATION   8:   ||err||_max =   1.9777e-03 ( 759.1 sec   4/ 48 done)
  ITERATION   9:   ||err||_max =   1.0826e-03 ( 696.9 sec  11/ 48 done)
  ITERATION  10:   ||err||_max =   5.3139e-04 ( 506.8 sec  24/ 48 done)
  ITERATION  11:   ||err||_max =   2.9854e-04 ( 253.4 sec  38/ 48 done)
  ITERATION  12:   ||err||_max =   1.9257e-04 (  81.9 sec  44/ 48 done)
  ITERATION  13:   ||err||_max =   1.2015e-04 (  38.0 sec  47/ 48 done)
  ITERATION  14:   ||err||_max =   3.7146e-05 (  17.0 sec  48/ 48 done)

CP-SCF equations solved in 8781.3 sec
Response densities calculated in   0.0 sec

Maximum memory used throughout the entire SCFRESP-calculation: 208.6 MB


           ************************************************************
           *        Program running with 8 parallel MPI-processes     *
           *              working on a common directory               *
           ************************************************************

------------------------------------------------------------------------------
                              ORCA PROPERTY CALCULATIONS
------------------------------------------------------------------------------

GBWName                                 ... t1_freq_2_wat_non.gbw
Number of atoms                         ...     16
Number of basis functions               ...    304
Max core memory                         ...   8000 MB

Electric properties:
Dipole moment                           ... YES
Quadrupole moment                       ...  NO
Static polarizability (Dipole/Dipole)   ...  NO
Static polarizability (Dipole/Quad.)    ...  NO
Static polarizability (Quad./Quad.)     ...  NO
Static polarizability (Velocity)        ...  NO
Static hyperpolarizability              ...  NO

Atomic electric properties:
Dipole moment                           ...  NO
Quadrupole moment                       ...  NO
Static polarizability                   ...  NO

Choice of electric origin               ... Center of mass
Position of electric origin             ...    -1.901408     3.259008     0.204545

General magnetic properties:
Magnetizability                         ...  NO

EPR properties:
g-Tensor (aka g-matrix)                 ...  NO
Zero-Field splitting spin-orbit         ...  NO
Zero-field splitting spin-spin          ...  NO
Hyperfine couplings                     ...  NO (   0 nuclei)
Quadrupole couplings                    ...  NO (   0 nuclei)
Contact density                         ...  NO (   0 nuclei)

NMR properties:
Chemical shifts                         ...  NO (   0 nuclei)
Spin-rotation constants                 ...  NO (   0 nuclei)
Spin-spin couplings                     ...  NO (   0 nuclei,    0 pairs)

Choice of magnetic origin               ... GIAO
Position of magnetic origin             ...     0.000000     0.000000     0.000000

Properties with geometric perturbations:
SCF Hessian                             ... YES
IR spectrum                             ... YES
VCD spectrum                            ...  NO
X-ray spectroscopy properties:
SCF XES/XAS/RIXS spectra                ...  NO

SCF SOC stabilization energy            ...  NO
Diagonal Born-Oppenheimer correction    ...  NO

-------------
DIPOLE MOMENT
-------------

Method             : SCF
Type of density    : Electron Density
Multiplicity       :   3
Irrep              :   0
[...]
     40      -0.000559   0.008345   0.048970  -0.010715  -0.000307  -0.000012
     41       0.000424   0.006242   0.034199  -0.007598   0.000161  -0.000032
     42       0.019457   0.159879  -0.229996   0.064095   0.001965  -0.000000
     43      -0.000569  -0.072555  -0.260762   0.055572   0.004516   0.000032
     44      -0.003877  -0.127046  -0.692285   0.155234  -0.002394   0.000103
     45      -0.002500  -0.042420  -0.194282   0.042850  -0.000060   0.000015
     46      -0.002760  -0.092930  -0.542169   0.120154  -0.000221   0.000042
     47       0.001144   0.018623   0.107496  -0.024264   0.000133  -0.000045
                 42         43         44         45         46         47    
      0       0.001218   0.001030  -0.000528   0.000505   0.000141  -0.000098
      1       0.002051  -0.001151   0.000823   0.000820  -0.000407   0.000163
      2      -0.000750   0.000316  -0.000254  -0.000301   0.000118  -0.000029
      3      -0.000017  -0.007294   0.000214  -0.001200   0.000117   0.000364
      4      -0.000754   0.000156   0.000812  -0.002444   0.000654  -0.000147
      5       0.000238   0.000572  -0.000286   0.000885  -0.000207   0.000022
      6      -0.068546   0.000585   0.000237  -0.000059   0.000020  -0.000034
      7       0.060244   0.000220  -0.000055  -0.000039  -0.000029  -0.000029
      8      -0.013098  -0.000112   0.000010   0.000015   0.000005   0.000029
      9      -0.013540   0.000012   0.000329   0.000509   0.000116   0.000027
     10      -0.202269  -0.002197  -0.000292   0.001244  -0.000025   0.000154
     11      -0.161074  -0.000956  -0.000157   0.000417  -0.000039   0.000030
     12       0.026473   0.000328   0.000233   0.000363   0.000144   0.000021
     13      -0.080303  -0.001221  -0.000235   0.000753   0.000007   0.000097
     14       0.257745   0.001876   0.000247  -0.001076   0.000027  -0.000073
     15       0.798722  -0.004852  -0.000429  -0.000192  -0.000431   0.000216
     16      -0.456570   0.004108   0.000958   0.000027   0.000510  -0.000211
     17       0.066586  -0.000844  -0.000222   0.000012  -0.000122   0.000021
     18      -0.000492  -0.000131   0.000251  -0.000193  -0.000117   0.000036
     19      -0.000119   0.000174  -0.001140   0.000063   0.000143  -0.000028
     20       0.000086  -0.000046   0.000372  -0.000007  -0.000037   0.000021
     21      -0.000067   0.003732  -0.000017   0.000892  -0.000009  -0.000219
     22       0.000505  -0.001217  -0.000163  -0.000385  -0.000123   0.000210
     23      -0.000152  -0.000220   0.000054   0.000108   0.000042  -0.000111
     24      -0.000093   0.003896  -0.000410   0.021874  -0.000012  -0.000483
     25      -0.000070  -0.004930  -0.000120  -0.056173  -0.000530   0.001041
     26       0.000026   0.001181   0.000084   0.016580   0.000156  -0.000332
     27       0.000351  -0.029302  -0.000840  -0.340652   0.001608   0.007766
     28       0.001305   0.082273   0.000009   0.895844   0.000865  -0.016597
     29      -0.000422  -0.019999   0.000059  -0.262112  -0.000505   0.006172
     30       0.000002  -0.000110  -0.049076  -0.000168   0.018620   0.000159
     31      -0.000130  -0.000323  -0.027835   0.000117  -0.057221  -0.000694
     32       0.000034   0.000106   0.015814  -0.000017   0.015001   0.000201
     33       0.000471   0.004445   0.780699   0.000320   0.083305   0.001762
     34       0.000729   0.004449   0.544235  -0.001796   0.020687   0.000475
     35      -0.000311  -0.002047  -0.283066   0.000532  -0.018624  -0.000425
     36      -0.000431  -0.002359   0.003349   0.002323  -0.380724  -0.004255
     37       0.000303   0.001416  -0.098949   0.000123   0.891494   0.010551
     38      -0.000032   0.000032   0.030176  -0.000362  -0.220392  -0.002689
     39       0.000126   0.016468  -0.000145  -0.002455  -0.000196   0.008926
     40       0.000271   0.053519  -0.000349  -0.003542  -0.000175   0.002617
     41      -0.000130  -0.022960   0.000101   0.002672  -0.000661   0.061557
     42      -0.001444  -0.275356   0.001394   0.033540   0.000366   0.021811
     43      -0.003824  -0.845878   0.005376   0.077099   0.001826   0.056142
     44       0.002006   0.436718  -0.002660  -0.038879  -0.001233   0.000462
     45       0.000153  -0.003870   0.000203  -0.003878   0.002070  -0.163751
     46       0.000062   0.016759  -0.000004  -0.002447   0.001133  -0.100375
     47      -0.000176  -0.075789   0.001234  -0.012576   0.011734  -0.977287


-----------
IR SPECTRUM
-----------

 Mode   freq       eps      Int      T**2         TX        TY        TZ
       cm**-1   L/(mol*cm) km/mol    a.u.
----------------------------------------------------------------------------
  7:     39.00   0.000362    1.83  0.002895  ( 0.033734 -0.037011 -0.019680)
  8:     56.06   0.001026    5.19  0.005713  (-0.016663  0.049451  0.054680)
  9:     65.55   0.002654   13.41  0.012637  ( 0.047363  0.005384  0.101806)
 10:    104.01   0.001587    8.02  0.004760  (-0.026023  0.034009  0.054097)
 11:    114.20   0.000468    2.36  0.001279  ( 0.005398 -0.031497  0.016044)
 12:    161.33   0.000310    1.57  0.000600  (-0.018271  0.006007 -0.015161)
 13:    171.00   0.000770    3.89  0.001406  (-0.030981 -0.006824 -0.019987)
 14:    202.91   0.000747    3.77  0.001148  (-0.025697  0.021784 -0.003659)
 15:    256.78   0.013713   69.30  0.016666  (-0.125686  0.024898 -0.015778)
 16:    316.68   0.003057   15.45  0.003013  (-0.019532  0.045025 -0.024578)
 17:    327.77   0.001924    9.72  0.001832  ( 0.034335 -0.024141  0.008370)
 18:    374.43   0.019449   98.29  0.016209  (-0.042471 -0.112192  0.042646)
 19:    380.44   0.002555   12.91  0.002095  ( 0.040566 -0.020615  0.004981)
 20:    441.50   0.012584   63.59  0.008895  (-0.001000  0.070788 -0.062311)
 21:    519.50   0.005396   27.27  0.003242  (-0.056857 -0.002962 -0.000012)
 22:    549.45   0.024034  121.46  0.013651  ( 0.017600  0.035814  0.109810)
 23:    601.89   0.002744   13.87  0.001423  ( 0.014000  0.034989 -0.001557)
 24:    628.28   0.013947   70.48  0.006928  (-0.014838  0.007679  0.081539)
 25:    718.53   0.009480   47.91  0.004117  ( 0.002303  0.011304  0.063121)
 26:    786.95   0.000174    0.88  0.000069  ( 0.004203 -0.007168 -0.000338)
 27:    950.10   0.053776  271.76  0.017663  ( 0.097463 -0.089489  0.012480)
 28:    976.74   0.001301    6.58  0.000416  (-0.005584 -0.018898  0.005243)
 29:   1011.33   0.000274    1.38  0.000084  (-0.000939 -0.003511 -0.008438)
 30:   1071.68   0.018946   95.75  0.005517  ( 0.033876  0.062271 -0.022174)
 31:   1223.21   0.048020  242.67  0.012251  (-0.045943 -0.095133  0.033011)
 32:   1340.34   0.009997   50.52  0.002328  ( 0.022143 -0.041836  0.009330)
 33:   1359.59   0.017070   86.26  0.003918  ( 0.062342 -0.003688 -0.004230)
 34:   1424.57   0.000841    4.25  0.000184  ( 0.013531 -0.001036 -0.000173)
 35:   1432.95   0.001917    9.69  0.000418  ( 0.001630  0.006446  0.019322)
 36:   1471.93   0.001279    6.46  0.000271  (-0.005343 -0.014957  0.004338)
 37:   1591.70   0.065973  333.40  0.012934  (-0.088411  0.068548 -0.020476)
 38:   1678.82   0.011429   57.76  0.002124  (-0.027140 -0.034090 -0.015023)
 39:   1681.19   0.027886  140.92  0.005176  (-0.068016  0.021958  0.008236)
 40:   3032.62   0.003222   16.28  0.000332  (-0.000364  0.017369 -0.005458)
 41:   3101.17   0.000825    4.17  0.000083  ( 0.000926  0.002522  0.008704)
 42:   3169.53   0.001900    9.60  0.000187  ( 0.012491 -0.005517  0.000769)
 43:   3309.58   0.178055  899.81  0.016789  ( 0.022217 -0.115916  0.053469)
 44:   3567.43   0.005947   30.06  0.000520  ( 0.021851  0.005124 -0.004066)
 45:   3730.35   0.120901  610.98  0.010114  (-0.028006  0.090406 -0.034006)
 46:   3939.75   0.004291   21.68  0.000340  ( 0.001914  0.017603 -0.005133)
 47:   3950.17   0.012875   65.06  0.001017  (-0.007444  0.016113 -0.026497)

* The epsilon (eps) is given for a Dirac delta lineshape.
** The dipole moment derivative (T) already includes vibrational overlap.

The first frequency considered to be a vibration is 7
The total number of vibrations considered is 41


--------------------------
THERMOCHEMISTRY AT 298.15K
--------------------------

Temperature         ...   298.15 K
Pressure            ...     1.00 atm
Total Mass          ...   124.09 AMU
Quasi RRHO          ...     True
Cut-Off Frequency   ...     1.00 cm^-1

Throughout the following assumptions are being made:
  (1) The electronic state is orbitally nondegenerate
      but the spin degeneracy is treated
  (2) There are no thermally accessible electronically excited states
  (3) Hindered rotations indicated by low frequency modes are not
      treated as such but are treated as vibrations and this may
      cause some error
  (4) All equations used are the standard statistical mechanics
      equations for an ideal gas
  (5) All vibrations are strictly harmonic

freq.      39.00  E(vib)   ...       0.54 
freq.      56.06  E(vib)   ...       0.52 
freq.      65.55  E(vib)   ...       0.50 
freq.     104.01  E(vib)   ...       0.46 
freq.     114.20  E(vib)   ...       0.44 
freq.     161.33  E(vib)   ...       0.39 
freq.     171.00  E(vib)   ...       0.38 
freq.     202.91  E(vib)   ...       0.35 
freq.     256.78  E(vib)   ...       0.30 
freq.     316.68  E(vib)   ...       0.25 
freq.     327.77  E(vib)   ...       0.24 
freq.     374.43  E(vib)   ...       0.21 
freq.     380.44  E(vib)   ...       0.21 
freq.     441.50  E(vib)   ...       0.17 
freq.     519.50  E(vib)   ...       0.13 
freq.     549.45  E(vib)   ...       0.12 
freq.     601.89  E(vib)   ...       0.10 
freq.     628.28  E(vib)   ...       0.09 
freq.     718.53  E(vib)   ...       0.07 
freq.     786.95  E(vib)   ...       0.05 
freq.     950.10  E(vib)   ...       0.03 
freq.     976.74  E(vib)   ...       0.03 
freq.    1011.33  E(vib)   ...       0.02 
freq.    1071.68  E(vib)   ...       0.02 
freq.    1223.21  E(vib)   ...       0.01 
freq.    1340.34  E(vib)   ...       0.01 
freq.    1359.59  E(vib)   ...       0.01 
freq.    1424.57  E(vib)   ...       0.00 
freq.    1432.95  E(vib)   ...       0.00 
freq.    1471.93  E(vib)   ...       0.00 
freq.    1591.70  E(vib)   ...       0.00 
freq.    1678.82  E(vib)   ...       0.00 
freq.    1681.19  E(vib)   ...       0.00 
freq.    3032.62  E(vib)   ...       0.00 
freq.    3101.17  E(vib)   ...       0.00 
freq.    3169.53  E(vib)   ...       0.00 
freq.    3309.58  E(vib)   ...       0.00 
freq.    3567.43  E(vib)   ...       0.00 
freq.    3730.35  E(vib)   ...       0.00 
freq.    3939.75  E(vib)   ...       0.00 
freq.    3950.17  E(vib)   ...       0.00 

------------
INNER ENERGY
------------

The inner energy is: U= E(el) + E(ZPE) + E(vib) + E(rot) + E(trans)
    E(el)   - is the total energy from the electronic structure calculation
              = E(kin-el) + E(nuc-el) + E(el-el) + E(nuc-nuc)
    E(ZPE)  - the the zero temperature vibrational energy from the frequency calculation
    E(vib)  - the the finite temperature correction to E(ZPE) due to population
              of excited vibrational states
    E(rot)  - is the rotational thermal energy
    E(trans)- is the translational thermal energy

Summary of contributions to the inner energy U:
Electronic energy                ...   -495.08614599 Eh
Zero point energy                ...      0.11807971 Eh      74.10 kcal/mol
Thermal vibrational correction   ...      0.00900430 Eh       5.65 kcal/mol
Thermal rotational correction    ...      0.00141627 Eh       0.89 kcal/mol
Thermal translational correction ...      0.00141627 Eh       0.89 kcal/mol
-----------------------------------------------------------------------
Total thermal energy                   -494.95622943 Eh


Summary of corrections to the electronic energy:
(perhaps to be used in another calculation)
Total thermal correction                  0.01183685 Eh       7.43 kcal/mol
Non-thermal (ZPE) correction              0.11807971 Eh      74.10 kcal/mol
-----------------------------------------------------------------------
Total correction                          0.12991656 Eh      81.52 kcal/mol


--------
ENTHALPY
--------

The enthalpy is H = U + kB*T
                kB is Boltzmann's constant
Total thermal energy              ...   -494.95622943 Eh 
Thermal Enthalpy correction       ...      0.00094421 Eh       0.59 kcal/mol
-----------------------------------------------------------------------
Total Enthalpy                    ...   -494.95528523 Eh


Note: Only C1 symmetry has been detected, increase convergence thresholds 
      if your molecule has a higher symmetry. Symmetry factor of 1.0 is   
      used for the rotational entropy correction. 
 

Note: Rotational entropy computed according to Herzberg 
Infrared and Raman Spectra, Chapter V,1, Van Nostrand Reinhold, 1945 
Point Group:  C1, Symmetry Number:   1  
Rotational constants in cm-1:     0.063824     0.038928     0.024382 

Vibrational entropy computed according to the QRRHO of S. Grimme
Chem.Eur.J. 2012 18 9955 using a reference frequency of 100.0 cm-1


-------
ENTROPY
-------

The entropy contributions are T*S = T*(S(el)+S(vib)+S(rot)+S(trans))
     S(el)   - electronic entropy
     S(vib)  - vibrational entropy
     S(rot)  - rotational entropy
     S(trans)- translational entropy
The entropies will be listed as multiplied by the temperature to get
units of energy

Electronic entropy                ...      0.00103729 Eh      0.65 kcal/mol
Vibrational entropy               ...      0.01626058 Eh     10.20 kcal/mol
Rotational entropy                ...      0.01409555 Eh      8.85 kcal/mol
Translational entropy             ...      0.01917695 Eh     12.03 kcal/mol
-----------------------------------------------------------------------
Final entropy term                ...      0.05057037 Eh     31.73 kcal/mol

In case the symmetry of your molecule has not been determined correctly
or in case you have a reason to use a different symmetry number we print 
out the resulting rotational entropy values for sn=1,12:

 non-linear molecules -----------------------------------
|  sn= 1 | S(rot)=       0.01409555 Eh      8.85 kcal/mol|
|  sn= 2 | S(rot)=       0.01344110 Eh      8.43 kcal/mol|
|  sn= 3 | S(rot)=       0.01305827 Eh      8.19 kcal/mol|
|  sn= 4 | S(rot)=       0.01278664 Eh      8.02 kcal/mol|
|  sn= 5 | S(rot)=       0.01257595 Eh      7.89 kcal/mol|
|  sn= 6 | S(rot)=       0.01240381 Eh      7.78 kcal/mol|
|  sn= 7 | S(rot)=       0.01225826 Eh      7.69 kcal/mol|
|  sn= 8 | S(rot)=       0.01213219 Eh      7.61 kcal/mol|
|  sn= 9 | S(rot)=       0.01202098 Eh      7.54 kcal/mol|
|  sn=10 | S(rot)=       0.01192150 Eh      7.48 kcal/mol|
|  sn=11 | S(rot)=       0.01183151 Eh      7.42 kcal/mol|
|  sn=12 | S(rot)=       0.01174935 Eh      7.37 kcal/mol|
 linear molecules ---------------------------------------
|  Dinfh | S(rot)=       0.00883241 Eh      5.54 kcal/mol|
|  Cinfv | S(rot)=       0.00948687 Eh      5.95 kcal/mol|
 --------------------------------------------------------


-------------------
GIBBS FREE ENERGY
-------------------

The Gibbs free energy is G = H - T*S

Total enthalpy                    ...   -494.95528523 Eh 
Total entropy correction          ...     -0.05057037 Eh    -31.73 kcal/mol
-----------------------------------------------------------------------
Final Gibbs free energy         ...   -495.00585559 Eh

For completeness - the Gibbs free energy minus the electronic energy
G-E(el)                           ...      0.08029040 Eh     50.38 kcal/mol


Maximum memory used throughout the entire PROP-calculation: 46.8 MB

--------------------------------
SUGGESTED CITATIONS FOR THIS RUN
--------------------------------

Below you find a list of papers that are relevant to this ORCA run
We neither can nor want to force you to cite these papers, but we appreciate if you do
You receive ORCA, which is the product of decades of hard work by many enthusiastic individuals, for free
The only thing we kindly ask in return is that you cite our papers,
We deeply appreciate it, if you show your appreciation for ORCA by not just citing the generic ORCA reference.

Please note that relegating all ORCA citations to the supporting information does *not* help us.
SI sections are not indexed - citations you put there will not count into any citation statistics
But we need these citations in order to attract the funding resources that allow us to do what we are doing

Therefore, if you are a happy ORCA user, please consider citing a few of the papers listed below in the main body of your paper

In addition to the list printed below, the program has created the file t1_freq_2_wat_non.bibtex that contains the list in bibtex format
You can import this file easily into all common literature databanks and citation aid programs


List of essential papers. We consider these as the minimum necessary citations

  1. Neese, F.
     Software update: the ORCA program system, version 6.0
     WIRES Comput. Molec. Sci. 2025 15(1), e70019
     doi.org/10.1002/wcms.7019

List of papers to cite with high priority. The work reported in these papers was absolutely
necessary for this run to complete.
Our perspective: the developers of density functionals and basis sets usually get cited in chemistry papers
Good! But without the algorithms to do something with them, the functionals or basis sets would not do anything.
Hence, in our opinion, the algorithm design and method developments papers are equally worthy of getting cited

  1. Bykov, D.; Petrenko, T.; Izsak, R.; Kossmann, S.; Becker, U.; Valeev, E.; Neese, F.
     Efficient implementation of the analytic second derivatives of Hartree-Fock and hybrid DFT energies: a detailed analysis of different approximations
     Molec. Phys. 2015 113 , 1961-1977
     doi.org/10.1080/00268976.2015.1025114
  2. Lehtola, S.; Steigemann, C.; Oliveira, M.; Marques, M.
     Recent developments in Libxc - A comprehensive library of functionals for density functional theory
     Software X 2018 7 , 
     doi.org/10.1016/j.softx.2017.11.002
  3. Neese, F.
     The SHARK Integral Generation and Digestion System
     J. Comp. Chem. 2022 44(3), 381
     doi.org/10.1002/jcc.26942

List of suggested additional citations. These are papers that are important in the 'surrounding' of 
of this run, or papers that preceded the highly important papers. If you like your results we are grateful for a citation.

  1. Neese, F.
     The ORCA program system
     WIRES Comput. Molec. Sci. 2012 2(1), 73-78
     doi.org/10.1002/wcms.81
  2. Neese, F.
     Software update: the ORCA program system, version 4.0
     WIRES Comput. Molec. Sci. 2018 8(1), 1-6
     doi.org/10.1002/wcms.1327
  3. Neese, F.; Wennmohs, F.; Becker, U.; Riplinger, C.
     The ORCA quantum chemistry program package
     J. Chem. Phys. 2020 152(22), 224108
     doi.org/10.1063/5.0004608
  4. Neese, F.
     Software update: The ORCA program system—Version 5.0
     WIRES Comput. Molec. Sci. 2022 12(1), e1606
     doi.org/10.1002/wcms.1606

List of optional additional citations

  1. Neese, F.
     Approximate second-order SCF convergence for spin unrestricted wavefunctions
     Chem. Phys. Lett. 2000 325(1-3), 93-98
     doi.org/10.1016/s0009-2614(00)00662-x

Timings for individual modules:

Sum of individual times          ...    10078.342 sec (= 167.972 min)
Startup calculation              ...       12.234 sec (=   0.204 min)   0.1 %
SCF iterations                   ...      261.453 sec (=   4.358 min)   2.6 %
Property integrals               ...      659.899 sec (=  10.998 min)   6.5 %
SCF Response                     ...     8782.653 sec (= 146.378 min)  87.1 %
Property calculations            ...      321.436 sec (=   5.357 min)   3.2 %
SCF Gradient evaluation          ...       40.668 sec (=   0.678 min)   0.4 %
                             ****ORCA TERMINATED NORMALLY****
TOTAL RUN TIME: 0 days 2 hours 48 minutes 0 seconds 696 msec
