
                                 *****************
                                 * O   R   C   A *
                                 *****************

                                            #,                                       
                                            ###                                      
                                            ####                                     
                                            #####                                    
                                            ######                                   
                                           ########,                                 
                                     ,,################,,,,,                         
                               ,,#################################,,                 
                          ,,##########################################,,             
                       ,#########################################, ''#####,          
                    ,#############################################,,   '####,        
                  ,##################################################,,,,####,       
                ,###########''''           ''''###############################       
              ,#####''   ,,,,##########,,,,          '''####'''          '####       
            ,##' ,,,,###########################,,,                        '##       
           ' ,,###''''                  '''############,,,                           
         ,,##''                                '''############,,,,        ,,,,,,###''
      ,#''                                            '''#######################'''  
     '                                                          ''''####''''         
             ,#######,   #######,   ,#######,      ##                                
            ,#'     '#,  ##    ##  ,#'     '#,    #''#        ,####,    ,#,          
            ##       ##  ##   ,#'  ##            #'  '#       #'       ,# #          
            ##       ##  #######   ##           ,######,      #####,      #          
            '#,     ,#'  ##    ##  '#,     ,#' ,#      #,     #,   #      #          
             '#######'   ##     ##  '#######'  #'      '#     '####' #    #          



                #########################################################
                #                        -***-                          #
                #          Department of theory and spectroscopy        #
                #                                                       #
                #                      Frank Neese                      #
                #                                                       #
                #     Directorship, Architecture, Infrastructure        #
                #                    SHARK, DRIVERS                     #
                #        Core code/Algorithms in most modules           #
                #                                                       #
                #        Max Planck Institute fuer Kohlenforschung      #
                #                Kaiser Wilhelm Platz 1                 #
                #                 D-45470 Muelheim/Ruhr                 #
                #                      Germany                          #
                #                                                       #
                #                  All rights reserved                  #
                #                        -***-                          #
                #########################################################


                         Program Version 6.1.0  -  RELEASE   -
                                (GIT: $679e74b$)
                          ($2025-06-10 18:02:51 +0200$)


 With contributions from (in alphabetic order):
[Max-Planck-Institut fuer Kohlenforschung]                               
  Daniel Aravena         : Magnetic Suceptibility                        
  Michael Atanasov       : Ab Initio Ligand Field Theory (pilot matlab implementation)
  Alexander A. Auer      : GIAO ZORA, VPT2 properties, NMR spectrum      
  Ute Becker             : All parallelization in ORCA, NUMFREQ, NUMCALC 
  Giovanni Bistoni       : ED, misc. LED, open-shell LED, HFLD           
  Dmytro Bykov           : pre 5.0 version of the SCF Hessian            
  Marcos Casanova-Páez   : Triplet and SCS-CIS(D). UHF-(DLPNO)-IP/EA/STEOM-CCSD. UHF-CVS-IP/STEOM-CCSD   
  Vijay G. Chilkuri      : MRCI spin determinant printing, contributions to CSF-ICE 
  Pauline Colinet        : FMM embedding                                 
  Dipayan Datta          : RHF DLPNO-CCSD density                        
  Achintya Kumar Dutta   : EOM-CC, STEOM-CC                              
  Nicolas Foglia         : Exact transition moments, OPA infrastructure, MCD improvements    
  Dmitry Ganyushin       : Spin-Orbit,Spin-Spin,Magnetic field MRCI      
  Miquel Garcia-Rates    : C-PCM and meta-GGA Hessian, CCSD/C-PCM, Gaussian charge scheme 
  Tiago L. C. Gouveia    : GS-ROHF, GS-ROCIS                             
  Yang Guo               : DLPNO-NEVPT2, F12-NEVPT2, CIM, IAO-localization        
  Andreas Hansen         : Spin unrestricted coupled pair/coupled cluster methods 
  Ingolf Harden          : AUTO-CI MPn and infrastructure                
  Benjamin Helmich-Paris : MC-RPA, TRAH-(SCF,CASSCF), AVAS, COSX integrals, SCF dyn. polar., MC-PDFT, srDFT 
  Lee Huntington         : MR-EOM, pCC                                   
  Robert Izsak           : Overlap fitted RIJCOSX, COSX-SCS-MP3, EOM     
  Riya Kayal             : Wick's Theorem for AUTO-CI, AUTO-CI UHF-CCSDT 
  Emily Kempfer          : AUTO-CI RHF CISDT and CCSDT, approximate NEVPT4
  Christian Kollmar      : KDIIS, OOCD, Brueckner-CCSD(T), CCSD density, CASPT2, CASPT2-K, improved NEVPT2 
  Axel Koslowski         : Symmetry handling                             
  Simone Kossmann        : meta-GGA functionals, TD-DFT gradient, OOMP2, (MP2 Hessian; deprecated post 5.0) 
  Lucas Lang             : DCDCAS, Hyperfine gauge corrections, ICE-SOC+SSC
  Marvin Lechner         : AUTO-CI (C++ implementation), FIC-MRCC        
  Spencer Leger          : CASSCF response                               
  Dagmar Lenk            : GEPOL surface, SMD, ORCA-2-JSON               
  Dimitrios Liakos       : Extrapolation schemes; Compound Job, Property file
  Dimitrios Manganas     : Further ROCIS development; embedding schemes. LFT, Crystal Embedding 
  Dimitrios Pantazis     : SARC Basis sets                               
  Anastasios Papadopoulos: AUTO-CI, single reference methods and gradients 
  Taras Petrenko         : pre 6.0 DFT Hessian and TD-DFT gradient,  ECA, NRVS 
  Petra Pikulova         : Analytic Raman intensities                    
  Peter Pinski           : DLPNO-MP2, DLPNO-MP2 Gradient                 
  Shashank Vittal Rao    : ES-AILFT, MagRelax                            
  Christoph Reimann      : Effective Core Potentials                     
  Marius Retegan         : Local ZFS, SOC                                
  Christoph Riplinger    : Optimizer, TS searches, QM/MM, DLPNO-CCSD(T), (RO)-DLPNO pert. Triples 
  Michael Roemelt        : Original ROCIS implementation, recursive CI coupling coefficients
  Masaaki Saitow         : Open-shell DLPNO-CCSD energy and density      
  Barbara Sandhoefer     : DKH picture change effects                    
  Yorick L. A. Schmerwitz: GMF and freeze-and-release deltaSCF, NEB S-IDPP initial path                    
  Kantharuban Sivalingam : CASSCF convergence/infrastructure, NEVPT2, NEVPT3, NEVPT4(SD), FIC-MRCI and CEPA variants
  Bernardo de Souza      : ESD, SOC TD-DFT                               
  Georgi L. Stoychev     : AutoAux, RI-MP2 NMR, DLPNO-MP2 response, X2C  
  Van Anh Tran           : RI-MP2 g-tensors                              
  Willem Van den Heuvel  : Paramagnetic NMR                              
  Zikuan Wang            : NOTCH, Electric field optimization            
  Frank Wennmohs         : Technical directorship and infrastructure     
  Hang Xu                : AUTO-CI-Response properties                   
                                                                         
[FACCTs GmbH]                                                            
  Markus Bursch, Nicolas Foglia, Miquel Garcia-Rates, Ingolf Harden, Hagen Neugebauer, Anastasios Papadopoulos, 
  Christoph Riplinger, Bernardo de Souza, Georgi L. Stoychev                                                    
                                                                 
  APM, various basis sets, CI-OPT, improved COSX, DLPNO-Multilevel,           
  DOCKER, DRACO, updates on ESD, Fragmentator, GOAT, IRC, LR-CPCM, L-BFGS, MBIS, meta-GGA TD-DFT gradient, ML-optimized integration grids, 
  MM, NACMEs, nearIR, NEB, NEB-TS, NL-DFT gradient (VV10), 2- and 3-layer-ONIOM, interface openCOSMO-RS, QMMM,   
  Crystal-QMMM, RESP, rigid body optimization, SF, symmetry and pop. for TD-DFT, various functionals, SOLVATOR                                   
                                                                         
[Other institutions]                                                     
  V. Asgeirsson          : NEB                                           
  Christoph Bannwarth    : sTDA-DFT, sTD-DFT, PBEh-3c, B97-3c, D3        
  Giovanni Bistoni       : ETS/NOCV, ADLD/ADEX, COVALED                  
  Martin Brehm           : Molecular dynamics                            
  Ronald Cardenas        : ETS/NOCV                                      
  Martina Colucci        : COVALED                                       
  Sebastian Ehlert       : rSCAN, r2SCAN, r2SCAN-3c, D4, dhf basis sets  
  Marvin Friede          : D4 for Fr, Ra, Ac-Lr                          
  Lars Goerigk           : TD-DFT with DH, B97 family of functionals     
  Stefan Grimme          : VdW corrections, initial TS optimization, DFT functionals, gCP, sTDA/sTD-DF 
  Waldemar Hujo          : DFT-NL                                        
  H. Jonsson             : NEB                                           
  Holger Kruse           : gCP                                           
  Marcel Mueller         : wB97X-3c, vDZP basis set                      
  Hagen Neugebauer       : wr2SCAN, Native XTB                           
  Gianluca Regni         : ADLD/ADEX                                     
  Tobias Risthaus        : pre 6.0 range-separated hybrid DFT and stability analysis
  Lukas Wittmann         : regularized MP2, r2SCAN double-hybrids, wr2SCAN        
                                                                         
We gratefully acknowledge several colleagues who have allowed us to      
interface, adapt or use parts of their codes:                            
  Ed Valeev, F. Pavosevic, A. Kumar             : LibInt (2-el integral package), F12 methods 
  Garnet Chan, S. Sharma, J. Yang, R. Olivares  : DMRG                   
  Ulf Ekstrom                                   : XCFun DFT Library      
  Mihaly Kallay                                 : mrcc  (arbitrary order and MRCC methods)
  Frank Weinhold                                : gennbo (NPA and NBO analysis)           
  Simon Mueller                                 : openCOSMO-RS                            
  Christopher J. Cramer and Donald G. Truhlar   : smd solvation model                     
  S Lehtola, MJT Oliveira, MAL Marques          : LibXC Library                           
  Liviu Ungur et al                             : ANISO software                          


 Your calculation uses the libint2 library for the computation of 2-el integrals
 For citations please refer to: http://libint.valeyev.net

 Your ORCA version has been built with support for libXC version: 7.0.0
 For citations please refer to: https://libxc.gitlab.io

 This ORCA versions uses:
   CBLAS   interface :  Fast vector & matrix operations
   LAPACKE interface :  Fast linear algebra routines
   SCALAPACK package :  Parallel linear algebra routines
   Shared memory     :  Shared parallel matrices
   BLAS/LAPACK       :  OpenBLAS 0.3.29  USE64BITINT DYNAMIC_ARCH NO_AFFINITY SkylakeX SINGLE_THREADED
        Core in use  :  SkylakeX
   Copyright (c) 2011-2014, The OpenBLAS Project


  ***********************************
  * Starting time: Fri Dec 12 15:03:51 2025
  * Host name:     bp1-compute097
  * Process ID:    2388426
  * Working dir.:  /user/work/kp22738/Diss/Orca/pyruvic_anion/binding_energies/0_wat/15007178_sp_s1_0_wat
  ***********************************

NOTE: MaxCore=2000 MB was set to SCF,MP2,MDCI,CIPSI,MRCI,RASCI and CIS
      => If you want to overwrite this, your respective input block should be placed after the MaxCore statement
Using LibXC functional ID 471 : wB97X-D range-separated functional
[ 1]  J.-D. Chai and M. Head-Gordon.,  Phys. Chem. Chem. Phys. 10, 6615-6620 (2008)
Using LibXC functional ID 471 : wB97X-D range-separated functional
[ 1]  J.-D. Chai and M. Head-Gordon.,  Phys. Chem. Chem. Phys. 10, 6615-6620 (2008)
Your calculation utilizes LibXC
by S. Lehtola, C. Steigemann, M. J. T. Oliveira & M. A. L. Marques
Please cite in your paper:
Lehtola, S.; Steigemann, C.; Oliveira, M.J.T.; Marques, M. A. L. Software X, 7, (2018), 1.
   

================================================================================

----- Orbital basis set information -----
Your calculation utilizes the basis: aug-cc-pVDZ 
    H, B-Ne : Obtained from the ccRepo (grant-hill.group.shef.ac.uk/ccrepo) Feb. 2017
              R. A. Kendall, T. H. Dunning, Jr., R. J. Harrison, J. Chem. Phys. 96, 6796 (1992)
         He : Obtained from the ccRepo (grant-hill.group.shef.ac.uk/ccrepo) Feb. 2017
              D. E. Woon, T. H. Dunning, Jr., J. Chem. Phys. 100, 2975 (1994)
  Li-Be, Na : Obtained from the ccRepo (grant-hill.group.shef.ac.uk/ccrepo) Feb. 2017
              B. P. Prascher, D. E. Woon, K. A. Peterson, T. H. Dunning, Jr., A. K. Wilson, Theor. Chem. Acc. 128, 69 (2011)
         Mg : Obtained from the Peterson Research Group Website (tyr0.chem.wsu.edu/~kipeters) Feb. 2017
              B. P. Prascher, D. E. Woon, K. A. Peterson, T. H. Dunning, Jr., A. K. Wilson, Theor. Chem. Acc. 128, 69 (2011)
      Al-Ar : Obtained from the ccRepo (grant-hill.group.shef.ac.uk/ccrepo) Feb. 2017
              D. E. Woon, T. H. Dunning, Jr., J. Chem. Phys. 98, 1358 (1993)
      Sc-Zn : Obtained from the ccRepo (grant-hill.group.shef.ac.uk/ccrepo) Feb. 2017
              N. B. Balabanov, K. A. Peterson, J. Chem. Phys. 123, 064107 (2005)
              N. B. Balabanov, K. A. Peterson, J. Chem. Phys. 125, 074110 (2006)
      Ga-Kr : Obtained from the ccRepo (grant-hill.group.shef.ac.uk/ccrepo) Feb. 2017
              A. K. Wilson, D. E. Woon, K. A. Peterson, T. H. Dunning, Jr., J. Chem. Phys. 110, 7667 (1999)

================================================================================
                                        WARNINGS
                       Please study these warnings very carefully!
================================================================================


WARNING: CIS/ROCIS methods need fully converged wavefunctions
  ===> : Setting SCFConvForced true
         You can overwrite this default with %scf ConvForced false 


================================================================================
                                       INPUT FILE
================================================================================
NAME = sp_s1_0_wat.inp
|  1> ! aug-cc-pVDZ LARGEPRINT DEFGRID3 TIGHTSCF 		
|  2> 
|  3> %PAL NPROCS 8 END
|  4> 
|  5> %maxcore 2000
|  6> 
|  7> %method
|  8> method dft
|  9> functional hyb_gga_xc_wb97x_d 
| 10> end
| 11> 
| 12> %TDDFT
| 13> NROOTS 10
| 14> DONTO TRUE
| 15> END
| 16> 
| 17> * xyz 0 1
| 18>   C          -0.63207512014485     -0.21537725479103     -0.00004065146226
| 19>   C           0.72496348777779      0.27560080306302     -0.00000607076031
| 20>   C          -1.78245920989620      0.75658567797168     -0.00004530641611
| 21>   H          -2.42125157294080      0.59944099550040      0.88650112874683
| 22>   H          -2.42134373022021      0.59939598319849     -0.88651755243096
| 23>   H          -1.41570096163570      1.79081694948472     -0.00007414745882
| 24>   O          -0.83757257442169     -1.48863386531631      0.00008165395126
| 25>   O           1.12231630981189      1.45158362810682     -0.00000867597359
| 26>   O           1.63504476387778     -0.75742604822579      0.00001944249410
| 27>   H           1.03646460779200     -1.53464986899201     -0.00004582069014
| 28> *
| 29> 
| 30>                          ****END OF INPUT****
================================================================================

                       ****************************
                       * Single Point Calculation *
                       ****************************

---------------------------------
CARTESIAN COORDINATES (ANGSTROEM)
---------------------------------
  C     -0.632075   -0.215377   -0.000041
  C      0.724963    0.275601   -0.000006
  C     -1.782459    0.756586   -0.000045
  H     -2.421252    0.599441    0.886501
  H     -2.421344    0.599396   -0.886518
  H     -1.415701    1.790817   -0.000074
  O     -0.837573   -1.488634    0.000082
  O      1.122316    1.451584   -0.000009
  O      1.635045   -0.757426    0.000019
  H      1.036465   -1.534650   -0.000046

----------------------------
CARTESIAN COORDINATES (A.U.)
----------------------------
  NO LB      ZA    FRAG     MASS         X           Y           Z
   0 C     6.0000    0    12.011   -1.194449   -0.407004   -0.000077
   1 C     6.0000    0    12.011    1.369982    0.520810   -0.000011
   2 C     6.0000    0    12.011   -3.368360    1.429740   -0.000086
   3 H     1.0000    0     1.008   -4.575502    1.132779    1.675244
   4 H     1.0000    0     1.008   -4.575677    1.132694   -1.675275
   5 H     1.0000    0     1.008   -2.675287    3.384154   -0.000140
   6 O     8.0000    0    15.999   -1.582783   -2.813110    0.000154
   7 O     8.0000    0    15.999    2.120870    2.743096   -0.000016
   8 O     8.0000    0    15.999    3.089787   -1.431328    0.000037
   9 H     1.0000    0     1.008    1.958634   -2.900068   -0.000087

--------------------------------
INTERNAL COORDINATES (ANGSTROEM)
--------------------------------
 C      0   0   0     0.000000000000     0.00000000     0.00000000
 C      1   0   0     1.443126203034     0.00000000     0.00000000
 C      1   2   0     1.506019753071   119.91525429     0.00000000
 H      3   1   2     1.103954127676   110.49510665   239.01992324
 H      3   1   2     1.103954289546   110.49769800   120.98968383
 H      3   1   2     1.097335835774   110.66908344     0.00000000
 O      1   2   3     1.289733156478   119.05838056   180.00756428
 O      2   1   3     1.241299669694   128.55977555     0.00000000
 O      2   1   3     1.376732510418   111.48939171   179.99881376
 H      9   2   1     0.981007173820   101.01870562     0.00000000

---------------------------
INTERNAL COORDINATES (A.U.)
---------------------------
 C      0   0   0     0.000000000000     0.00000000     0.00000000
 C      1   0   0     2.727113300419     0.00000000     0.00000000
 C      1   2   0     2.845964885579   119.91525429     0.00000000
 H      3   1   2     2.086170965720   110.49510665   239.01992324
 H      3   1   2     2.086171271610   110.49769800   120.98968383
 H      3   1   2     2.073664206551   110.66908344     0.00000000
 O      1   2   3     2.437242451582   119.05838056   180.00756428
 O      2   1   3     2.345716425849   128.55977555     0.00000000
 O      2   1   3     2.601647404356   111.48939171   179.99881376
 H      9   2   1     1.853834893931   101.01870562     0.00000000

---------------------
BASIS SET INFORMATION
---------------------
There are 3 groups of distinct atoms

 Group   1 Type C   : 18s5p2d contracted to 4s3p2d pattern {8811/311/11}
 Group   2 Type H   : 5s2p contracted to 3s2p pattern {311/11}
 Group   3 Type O   : 18s5p2d contracted to 4s3p2d pattern {8811/311/11}

Atom   0C    basis set group =>   1
Atom   1C    basis set group =>   1
Atom   2C    basis set group =>   1
Atom   3H    basis set group =>   2
Atom   4H    basis set group =>   2
Atom   5H    basis set group =>   2
Atom   6O    basis set group =>   3
Atom   7O    basis set group =>   3
Atom   8O    basis set group =>   3
Atom   9H    basis set group =>   2

-------------------------
BASIS SET IN INPUT FORMAT
-------------------------

 # Basis set for element : H 
 NewGTO H 
 S 3 
   1      13.0100000000      0.0334987264
   2       1.9620000000      0.2348008012
   3       0.4446000000      0.8136829579
 S 1 
   1       0.1220000000      1.0000000000
 S 1 
   1       0.0297400000      1.0000000000
 P 1 
   1       0.7270000000      1.0000000000
 P 1 
   1       0.1410000000      1.0000000000
  end;

 # Basis set for element : C 
 NewGTO C 
 S 8 
   1    6665.0000000000      0.0006915840
   2    1000.0000000000      0.0053257962
   3     228.0000000000      0.0270607210
   4      64.7100000000      0.1016568461
   5      21.0600000000      0.2745748236
   6       7.4950000000      0.4482943189
   7       2.7970000000      0.2849026107
   8       0.5215000000      0.0151948592
 S 8 
   1    6665.0000000000     -0.0002932697
   2    1000.0000000000     -0.0023180355
   3     228.0000000000     -0.0114997860
   4      64.7100000000     -0.0468267270
   5      21.0600000000     -0.1284661688
   6       7.4950000000     -0.3012662725
   7       2.7970000000     -0.2556307023
   8       0.5215000000      1.0937933610
 S 1 
   1       0.1596000000      1.0000000000
 S 1 
   1       0.0469000000      1.0000000000
 P 3 
   1       9.4390000000      0.0569792516
   2       2.0020000000      0.3132072115
   3       0.5456000000      0.7603767417
 P 1 
   1       0.1517000000      1.0000000000
 P 1 
   1       0.0404100000      1.0000000000
 D 1 
   1       0.5500000000      1.0000000000
 D 1 
   1       0.1510000000      1.0000000000
  end;

 # Basis set for element : O 
 NewGTO O 
 S 8 
   1   11720.0000000000      0.0007096459
   2    1759.0000000000      0.0054672723
   3     400.8000000000      0.0278231186
   4     113.7000000000      0.1047477397
   5      37.0300000000      0.2829208464
   6      13.2700000000      0.4484952387
   7       5.0250000000      0.2708168852
   8       1.0130000000      0.0154502916
 S 8 
   1   11720.0000000000     -0.0003144434
   2    1759.0000000000     -0.0024821377
   3     400.8000000000     -0.0123163554
   4     113.7000000000     -0.0505389173
   5      37.0300000000     -0.1393849033
   6      13.2700000000     -0.3250774948
   7       5.0250000000     -0.2298483076
   8       1.0130000000      1.0953793468
 S 1 
   1       0.3023000000      1.0000000000
 S 1 
   1       0.0789600000      1.0000000000
 P 3 
   1      17.7000000000      0.0626791663
   2       3.8540000000      0.3335365659
   3       1.0460000000      0.7412396416
 P 1 
   1       0.2753000000      1.0000000000
 P 1 
   1       0.0685600000      1.0000000000
 D 1 
   1       1.1850000000      1.0000000000
 D 1 
   1       0.3320000000      1.0000000000
  end;



           ************************************************************
           *        Program running with 8 parallel MPI-processes     *
           *              working on a common directory               *
           ************************************************************
------------------------------------------------------------------------------
                             ORCA STARTUP CALCULATIONS
------------------------------------------------------------------------------
------------------------------------------------------------------------------
                   ___                                                        
                  /   \      - P O W E R E D   B Y -                         
                 /     \                                                     
                 |  |  |   _    _      __       _____    __    __             
                 |  |  |  | |  | |    /  \     |  _  \  |  |  /  |          
                  \  \/   | |  | |   /    \    | | | |  |  | /  /          
                 / \  \   | |__| |  /  /\  \   | |_| |  |  |/  /          
                |  |  |   |  __  | /  /__\  \  |    /   |      \           
                |  |  |   | |  | | |   __   |  |    \   |  |\   \          
                \     /   | |  | | |  |  |  |  | |\  \  |  | \   \       
                 \___/    |_|  |_| |__|  |__|  |_| \__\ |__|  \__/        
                                                                              
                      - O R C A' S   B I G   F R I E N D -                    
                                      &                                       
                       - I N T E G R A L  F E E D E R -                       
                                                                              
 v1 FN, 2020, v2 2021, v3 2022-2024                                           
------------------------------------------------------------------------------


----------------------
SHARK INTEGRAL PACKAGE
----------------------

Number of atoms                             ...     10
Number of basis functions                   ...    210
Number of shells                            ...    110
Maximum angular momentum                    ...      2
Integral batch strategy                     ... SHARK/LIBINT Hybrid
RI-J (if used) integral strategy            ... SPLIT-RIJ (Revised 2003 algorithm where possible)
Printlevel                                  ...      1
Contraction scheme used                     ... PARTIAL GENERAL contraction
Prescreening option                         ... SCHWARTZ
   Thresh                                   ... 2.500e-11
   Tcut                                     ... 2.500e-12
   Tpresel                                  ... 2.500e-12 
Coulomb Range Separation                    ... NOT USED
Exchange Range Separation                   ... Long Range
   Mu parameter                             ... 2.000e-01
   Scaling (regular/separated)              ... 2.220e-01 7.780e-01
Robust (split-)RI terms used:
  metric    (central integrals)             ... YES
  density   (r.h.s.  integrals)             ... YES
  potential (l.h.s.  integrals)             ... YES
Multipole approximations                    ... NOT USED
Finite Nucleus Model                        ... NOT USED
CABS basis                                  ... NOT available
Auxiliary Coulomb fitting basis             ... NOT available
Auxiliary J/K fitting basis                 ... NOT available
Auxiliary Correlation fitting basis         ... NOT available
Auxiliary 'external' fitting basis          ... NOT available

Checking pre-screening integrals            ... done (  0.0 sec) Dimension = 110
Save PGC pre-screening integrals            ... done (  0.0 sec) Dimension = 110
Calculate PGC overlap integrals             ... done (  0.0 sec) Dimension = 74
Calculating pre-screening integrals (ORCA)  ... done (  0.2 sec) Dimension = 74
Shell pair information
Shell pair cut-off parameter TPreSel        ...   2.5e-12
Total number of shell pairs                 ...      6105
Shell pairs after pre-screening             ...      5248
Total number of primitive shell pairs       ...      8545
Primitive shell pairs kept                  ...      6882
          la=0 lb=0:   1891 shell pairs
          la=1 lb=0:   1785 shell pairs
          la=1 lb=1:    351 shell pairs
          la=2 lb=0:    831 shell pairs
          la=2 lb=1:    312 shell pairs
          la=2 lb=2:     78 shell pairs

Checking whether 4 symmetric matrices of dimension 210 fit in memory
:Max Core in MB      =   2000.00
 MB in use           =      6.96
 MB left             =   1993.04
 MB needed           =      0.68
 Data fit in memory  = YES
Calculating Nuclear repulsion               ... done (  0.0 sec) ENN=    228.281007631829 Eh

Diagonalization of the overlap matrix:
Smallest eigenvalue                        ... 4.185e-05
Time for diagonalization                   ...    0.006 sec
Threshold for overlap eigenvalues          ... 1.000e-07
Number of eigenvalues below threshold      ... 0
Time for construction of square roots      ...    0.003 sec
Total time needed                          ...    0.023 sec

-------------------
DFT GRID GENERATION
-------------------

General Integration Accuracy     IntAcc      ... 4.959
Radial Grid Type                 RadialGrid  ... OptM3 with GC (2021)
Angular Grid (max. ang.)         AngularGrid ... 6 (Lebedev-590)
Angular grid pruning method      GridPruning ... 4 (adaptive)
Weight generation scheme         WeightScheme... mBecke (2022)
Basis function cutoff            BFCut       ... 1.0000e-11
Integration weight cutoff        WCut        ... 1.0000e-14
Partially contracted basis set               ... off
Rotationally invariant grid construction     ... off
Angular grids for H and He will be reduced by one unit
Diffuse basis detected: some atoms will have their outermost
                        angular grid increased by 1.

Total number of grid points                  ...   128396
Total number of batches                      ...     2011
Average number of points per batch           ...       63
Average number of grid points per atom       ...    12840

---------------------
SHARK GRID GENERATION
---------------------

General Integration Accuracy     IntAcc      ... 4.959
Radial Grid Type                 RadialGrid  ... OptM3 with GC (2021)
Angular Grid (max. ang.)         AngularGrid ... 6 (Lebedev-590)
Angular grid pruning method      GridPruning ... 4 (adaptive)
Weight generation scheme         WeightScheme... mBecke (2022)
Basis function cutoff            BFCut       ... 1.0000e-11
Integration weight cutoff        WCut        ... 1.0000e-14
Partially contracted basis set               ... off
Rotationally invariant grid construction     ... off
Angular grids for H and He will be reduced by one unit
Diffuse basis detected: some atoms will have their outermost
                        angular grid increased by 1.
Steep s-basis detected: some atoms will have their radial
                        grid points doubled.

Total number of grid points                  ...   217811
Total number of batches                      ...     3407
Average number of points per batch           ...       63
Average number of grid points per atom       ...    21781
Grids setup in   7.9 sec
Initializing property integral containers    ... done (  0.0 sec)

SHARK setup successfully completed in  10.6 seconds

Maximum memory used throughout the entire STARTUP-calculation: 51.8 MB


           ************************************************************
           *        Program running with 8 parallel MPI-processes     *
           *              working on a common directory               *
           ************************************************************
-------------------------------------------------------------------------------
                                 ORCA GUESS
                   Start orbitals & Density for SCF / CASSCF
-------------------------------------------------------------------------------

------------
SCF SETTINGS
------------
Hamiltonian:
 Density Functional     Method          .... DFT(GTOs)
  Functional kind                       .... Exchange-Correlation
  Functional name                       .... wB97X-D range-separated functional
  Functional family                     .... Hybrid GGA
  Functional refs                              
    [ 0] J.-D. Chai and M. Head-Gordon.,  Phys. Chem. Chem. Phys. 10, 6615-6620 (2008), doi: 10.1039/B810189B
  Fraction of HF Exchange (short range) .... 0.2220
  Fraction of HF Exchange ( int64 range )  .... 1.0000
  Range separation parameter mu         .... 0.2000
  Functional external parameters        .... 18
    Parameter  0 _cx0       =  7.779640e-01 : u^0 coefficient for exchange
    Parameter  1 _cx1       =  6.611600e-01 : u^1 coefficient for exchange
    Parameter  2 _cx2       =  5.745410e-01 : u^2 coefficient for exchange
    Parameter  3 _cx3       = -5.256710e+00 : u^3 coefficient for exchange
    Parameter  4 _cx4       =  1.163860e+01 : u^4 coefficient for exchange
    Parameter  5 _css0      =  1.000000e+00 : u^0 coefficient for same-spin correlation
    Parameter  6 _css1      = -6.905390e+00 : u^1 coefficient for same-spin correlation
    Parameter  7 _css2      =  3.133430e+01 : u^2 coefficient for same-spin correlation
    Parameter  8 _css3      = -5.105330e+01 : u^3 coefficient for same-spin correlation
    Parameter  9 _css4      =  2.644230e+01 : u^4 coefficient for same-spin correlation
    Parameter 10 _cos0      =  1.000000e+00 : u^0 coefficient for opposite-spin correlation
    Parameter 11 _cos1      =  1.794130e+00 : u^1 coefficient for opposite-spin correlation
    Parameter 12 _cos2      = -1.204770e+01 : u^2 coefficient for opposite-spin correlation
    Parameter 13 _cos3      =  1.408470e+01 : u^3 coefficient for opposite-spin correlation
    Parameter 14 _cos4      = -8.508090e+00 : u^4 coefficient for opposite-spin correlation
    Parameter 15 _alpha     =  1.000000e+00 : fraction of HF exchange
    Parameter 16 _beta      = -7.779640e-01 : fraction of short-range exchange
    Parameter 17 _omega     =  2.000000e-01 : range-separation constant
 Long-range corrected/Screened/Range-Separated Hybrid DFT is turned on
   Amount of maximum screened exact exchange              ....  0.777964
   Range separation parameter mu (erf(mu*r12)/r12)        ....  0.200000


General Settings:
 Integral files         IntName         .... sp_s1_0_wat
 Hartree-Fock type      HFTyp           .... RHF
 Total Charge           Charge          ....    0
 Multiplicity           Mult            ....    1
 Number of Electrons    NEL             ....   46
 Basis Dimension        Dim             ....  174
 Nuclear Repulsion      ENuc            ....    228.2810076318 Eh

Convergence Acceleration:
 AO-DIIS                CNVDIIS         .... on
   Start iteration      DIISMaxIt       ....    12
   Startup error        DIISStart       ....  0.200000
   # of expansion vecs  DIISMaxEq       ....     5
   Bias factor          DIISBfac        ....   1.050
   Max. coefficient     DIISMaxC        ....  10.000
 MO-DIIS                CNVKDIIS        .... off
 Trust-Rad. Augm. Hess. CNVTRAH         .... auto
   Auto Start mean grad. ratio tolernc. ....  1.125000
   Auto Start start iteration           ....    50
   Auto Start num. interpolation iter.  ....    10
   Max. Number of Micro iterations      ....    24
   Max. Number of Macro iterations      .... Maxiter - #DIIS iter
   Number of Davidson start vectors     ....     2
   Converg. threshold    (grad. norm)   ....   1.000e-05
   Grad. Scal. Fac. for Micro threshold ....   0.100
   Minimum threshold for Micro iter.    ....   1.000e-02
   NR start threshold (gradient norm)   ....   1.000e-04
   Initial trust radius                 ....   0.400
   Minimum AH scaling param. (alpha)    ....   1.000
   Maximum AH scaling param. (alpha)    .... 1000.000
   Quad. conv. algorithm                .... NR
   White noise on init. David. guess    .... on
   Maximum white noise                  ....   0.010
   Pseudo random numbers                .... off
   Inactive MOs                         .... canonical
   Orbital update algorithm             .... Taylor
   Preconditioner                       .... Diag
   Full preconditioner red. dimension   ....   250
 SOSCF                 CNVSOSCF           .... on
   Start iteration     SOSCFMaxIt         ....   150
   Startup grad/error  SOSCFStart         ....  0.003300
   Hessian update      SOSCFHessUp        .... L-BFGS
   Autom. constraints  SOSCFAutoConstrain .... off
 Level Shifting         CNVShift        .... on
   Level shift para.    LevelShift      ....    0.2500
   Turn off err/grad.   ShiftErr        ....    0.0010
 Zerner damping         CNVZerner       .... off
 Static damping         CNVDamp         .... on
   Fraction old density DampFac         ....    0.7000
   Max. Damping (<1)    DampMax         ....    0.9800
   Min. Damping (>=0)   DampMin         ....    0.0000
   Turn off err/grad.   DampErr         ....    0.1000

SCF Procedure:
 Maximum # iterations   MaxIter         ....   125
 SCF integral mode      SCFMode         .... Direct
   Integral package                     .... SHARK and LIBINT hybrid scheme
 Reset frequency        DirectResetFreq ....    20
 Integral Threshold     Thresh          ....  2.500e-11 Eh
 Primitive CutOff       TCut            ....  2.500e-12 Eh

Convergence Tolerance:
 Convergence Check Mode ConvCheckMode   .... Total+1el-Energy
 Convergence forced     ConvForced      .... 1
 Energy Change          TolE            ....  1.000e-08 Eh
 1-El. energy change                    ....  1.000e-05 Eh
 Orbital Gradient       TolG            ....  1.000e-05
 Orbital Rotation angle TolX            ....  1.000e-05
 DIIS Error             TolErr          ....  5.000e-07

------------------------------
INITIAL GUESS: MODEL POTENTIAL
------------------------------
Loading Hartree-Fock densities                     ... done
Calculating cut-offs                               ... done
Initializing the effective Hamiltonian             ... done
Setting up the integral package (SHARK)            ... done
Starting the Coulomb interaction                   ... done (   0.3 sec)
Making the grid                                    ... done (   0.1 sec)
Mapping shells                                     ... done
Starting the XC term evaluation                    ... done (   0.2 sec)
  promolecular density results
     # of electrons  =     45.997777643
     EX+EC           =    -29.730021899
Transforming the Hamiltonian                       ... done (   0.0 sec)
Diagonalizing the Hamiltonian                      ... done (   0.1 sec)
Back transforming the eigenvectors                 ... done (   0.0 sec)
Now organizing SCF variables                       ... done
                      ------------------
                      INITIAL GUESS DONE (   0.8 sec)
                      ------------------
----------------------
INITIAL GUESS ORBITALS
----------------------
                      0         1         2         3         4         5   
                 -18.21894 -18.20484 -18.19563  -9.51517  -9.49166  -9.49123
                   2.00000   2.00000   2.00000   2.00000   2.00000   2.00000
                  --------  --------  --------  --------  --------  --------
  0C   1s         0.000090  0.000447 -0.000091  0.002234  0.012860 -1.014235
  0C   2s         0.000067  0.000679 -0.000224  0.002639  0.003766 -0.038108
  0C   3s         0.016325  0.012108  0.010489 -0.026377 -0.079004 -0.029585
  0C   4s        -0.030542 -0.000433  0.060609 -0.010591 -0.027142  0.027912
  0C   1pz        0.000000 -0.000000  0.000000 -0.000000 -0.000000 -0.000001
  0C   1px       -0.000496 -0.000339 -0.000146  0.000148 -0.001557 -0.000520
  0C   1py       -0.000009 -0.000035 -0.001273  0.000301  0.000291  0.001981
  0C   2pz        0.000000  0.000001  0.000001  0.000000 -0.000002 -0.000003
  0C   2px        0.012657  0.022723 -0.016319  0.016750 -0.042095 -0.081683
  0C   2py        0.004564  0.012957 -0.027446 -0.010326 -0.016320  0.023471
  0C   3pz        0.000000 -0.000000  0.000000 -0.000000  0.000000 -0.000000
  0C   3px       -0.005907 -0.019695  0.007087 -0.019252  0.004378 -0.008152
  0C   3py       -0.002373  0.009209  0.006964  0.004734 -0.005622  0.008739
  0C   1dz2       0.000152  0.000330 -0.000296  0.001817  0.003363  0.004963
  0C   1dxz       0.000000  0.000000  0.000000 -0.000000 -0.000000 -0.000000
  0C   1dyz      -0.000000 -0.000000  0.000000  0.000000  0.000000  0.000001
  0C   1dx2y2    -0.000338  0.000320  0.000994 -0.000218 -0.003056  0.000367
  0C   1dxy      -0.000289 -0.000681 -0.000413  0.002769 -0.002110 -0.000886
  0C   2dz2       0.002178  0.003402 -0.005951  0.002779  0.006005 -0.007273
  0C   2dxz      -0.000000 -0.000000 -0.000001 -0.000001 -0.000000  0.000000
  0C   2dyz       0.000000  0.000000 -0.000004 -0.000000 -0.000002 -0.000001
  0C   2dx2y2     0.002702 -0.000925 -0.028946 -0.003671 -0.016325 -0.011322
  0C   2dxy       0.003257  0.009666  0.004472  0.012068 -0.015213 -0.029264
  1C   1s         0.000005  0.000119  0.000334 -0.000993  1.014423  0.008785
  1C   2s         0.000154  0.000018  0.000449 -0.001469  0.038842 -0.001610
  1C   3s         0.010130  0.012585  0.022319  0.003285  0.091386  0.096835
  1C   4s         0.038924  0.036284 -0.042955  0.041204  0.013403 -0.007229
  1C   1pz        0.000000  0.000000 -0.000000  0.000000 -0.000000 -0.000000
  1C   1px        0.001083  0.000588  0.000355  0.000371  0.001621 -0.000836
  1C   1py       -0.000695  0.000854  0.000105  0.000174  0.001694  0.000024
  1C   2pz        0.000001  0.000000  0.000001  0.000001 -0.000001 -0.000001
  1C   2px        0.025704  0.030446 -0.012971  0.004136 -0.028020 -0.051529
  1C   2py       -0.009501  0.020579 -0.016763 -0.001583 -0.013465 -0.022023
  1C   3pz       -0.000001 -0.000000  0.000000 -0.000000 -0.000000  0.000000
  1C   3px       -0.005873 -0.004603  0.007333 -0.004213 -0.002114  0.003507
  1C   3py       -0.003675 -0.002318 -0.000617 -0.005090  0.002285  0.001679
  1C   1dz2      -0.000822 -0.000310  0.000386 -0.000559 -0.006719 -0.003462
  1C   1dxz       0.000000  0.000000 -0.000000 -0.000000  0.000000  0.000000
  1C   1dyz      -0.000000 -0.000000  0.000000  0.000000  0.000000  0.000000
  1C   1dx2y2    -0.000234  0.000736 -0.000144 -0.000683 -0.002350  0.002994
  1C   1dxy       0.000252 -0.001141 -0.000675  0.000532  0.001117  0.002676
  1C   2dz2      -0.004549 -0.007276  0.002803 -0.002604  0.000545 -0.003618
  1C   2dxz       0.000000 -0.000000 -0.000001 -0.000000 -0.000000  0.000000
  1C   2dyz      -0.000001 -0.000000  0.000002  0.000000  0.000001  0.000001
  1C   2dx2y2    -0.004105 -0.023059  0.002353 -0.001829  0.007317  0.011492
  1C   2dxy      -0.014327  0.006649  0.004226 -0.001201  0.003314  0.017552
  2C   1s         0.000016 -0.000298  0.000367  1.014788 -0.000811  0.000676
  2C   2s         0.000049 -0.000482  0.000548  0.039059 -0.001613  0.000652
  2C   3s         0.009422  0.014812  0.002800 -0.041466 -0.006791 -0.055987
  2C   4s         0.004282 -0.026978 -0.010333 -0.039114  0.013033 -0.018143
  2C   1pz        0.000000  0.000000  0.000000  0.000000 -0.000000 -0.000000
  2C   1px        0.000178  0.000110 -0.000111 -0.000534 -0.000266  0.000719
  2C   1py       -0.000011  0.000092  0.000281  0.000583  0.000145 -0.000571
  2C   2pz       -0.000000 -0.000001  0.000002 -0.000000  0.000002 -0.000000
  2C   2px        0.000994  0.007483 -0.006437  0.019266  0.000057 -0.030124
  2C   2py       -0.000078 -0.008997 -0.006092 -0.016207 -0.013240  0.018368
  2C   3pz       -0.000000  0.000000  0.000001  0.000000 -0.000000 -0.000000
  2C   3px        0.000228 -0.002787 -0.004008 -0.001558  0.002428 -0.003714
  2C   3py       -0.000900  0.005653 -0.001081  0.003475 -0.002819  0.004198
  2C   1dz2       0.000001 -0.000113  0.000302  0.000190 -0.000644 -0.002023
  2C   1dxz       0.000000  0.000000 -0.000000  0.000000 -0.000000 -0.000000
  2C   1dyz      -0.000000 -0.000000 -0.000000 -0.000000  0.000000 -0.000000
  2C   1dx2y2    -0.000089  0.000084  0.000147 -0.000018 -0.000671  0.000303
  2C   1dxy       0.000027  0.000087  0.000449  0.000627 -0.000525 -0.002855
  2C   2dz2       0.001325  0.000607  0.002918 -0.000269 -0.005218  0.001847
  2C   2dxz      -0.000000  0.000000  0.000002 -0.000000  0.000001  0.000001
  2C   2dyz       0.000000  0.000000  0.000001  0.000001 -0.000000 -0.000001
  2C   2dx2y2    -0.001509 -0.002272 -0.004100 -0.000806 -0.000867 -0.002978
  2C   2dxy       0.000479 -0.002278 -0.002316 -0.006041 -0.001249  0.006644
  3H   1s        -0.000237 -0.000275 -0.000273 -0.003088  0.000520  0.001432
  3H   2s        -0.000697  0.002801  0.001039  0.026227 -0.000804 -0.009365
  3H   3s        -0.001219 -0.000676 -0.001410  0.000867  0.000213 -0.000689
  3H   1pz       -0.000006  0.000014 -0.000001  0.003190  0.000067 -0.000311
  3H   1px       -0.000089 -0.000099  0.000057 -0.002450  0.000021  0.000367
  3H   1py       -0.000003  0.000038 -0.000180 -0.000615  0.000483  0.000184
  3H   2pz       -0.000448 -0.001459 -0.001415 -0.007508  0.001797  0.002255
  3H   2px       -0.000688 -0.001016  0.000269  0.004629 -0.000285 -0.002522
  3H   2py        0.000401  0.000386 -0.000813  0.000438  0.000732  0.001114
  4H   1s        -0.000237 -0.000275 -0.000273 -0.003088  0.000520  0.001432
  4H   2s        -0.000698  0.002800  0.001040  0.026229 -0.000805 -0.009369
  4H   3s        -0.001219 -0.000675 -0.001409  0.000867  0.000213 -0.000689
  4H   1pz        0.000006 -0.000014  0.000001 -0.003190 -0.000067  0.000311
  4H   1px       -0.000089 -0.000099  0.000057 -0.002450  0.000022  0.000368
  4H   1py       -0.000003  0.000038 -0.000180 -0.000615  0.000483  0.000184
  4H   2pz        0.000448  0.001459  0.001415  0.007507 -0.001797 -0.002256
  4H   2px       -0.000689 -0.001016  0.000270  0.004630 -0.000284 -0.002523
  4H   2py        0.000401  0.000387 -0.000813  0.000439  0.000731  0.001114
  5H   1s         0.000169  0.000118  0.000669 -0.002460 -0.001037  0.000628
  5H   2s        -0.006522  0.002290 -0.002943  0.021678  0.013164 -0.006102
  5H   3s         0.001339 -0.003952  0.002888  0.001098  0.001356 -0.003629
  5H   1pz       -0.000000 -0.000000 -0.000000 -0.000000 -0.000000  0.000000
  5H   1px        0.000131 -0.000056 -0.000060  0.001372 -0.000252 -0.000117
  5H   1py        0.000049  0.000118  0.000141  0.004011  0.000190 -0.000253
  5H   2pz       -0.000000 -0.000000 -0.000001 -0.000000 -0.000000 -0.000000
  5H   2px       -0.000728  0.000138  0.001239 -0.001424 -0.000571  0.000237
  5H   2py        0.002410 -0.000280  0.001895 -0.005985 -0.005472  0.001028
  6O   1s        -0.000547 -0.001333  1.010121 -0.000248 -0.000537 -0.001553
  6O   2s        -0.000342 -0.000506  0.024791 -0.000480 -0.000992 -0.002595
  6O   3s         0.003024  0.004229 -0.052360 -0.000644  0.000481  0.011445
  6O   4s         0.007972  0.002809 -0.033136 -0.000858  0.000189  0.011283
  6O   1pz        0.000000  0.000000 -0.000000  0.000000  0.000000 -0.000000
  6O   1px        0.000080  0.000089  0.000338 -0.000077  0.000092  0.000209
  6O   1py       -0.000019  0.000094  0.001620 -0.000320 -0.000583  0.000839
  6O   2pz       -0.000000 -0.000001  0.000001 -0.000000 -0.000001 -0.000001
  6O   2px        0.000082 -0.000169 -0.002594  0.002465 -0.002147 -0.000039
  6O   2py        0.000521  0.001295 -0.011826  0.001942  0.005832  0.012674
  6O   3pz       -0.000000 -0.000000  0.000001  0.000000 -0.000000 -0.000000
  6O   3px        0.002853  0.001441 -0.002610  0.002733 -0.002851  0.000422
  6O   3py        0.001131 -0.001227 -0.009224 -0.001812  0.000901  0.002539
  6O   1dz2       0.000008 -0.000014  0.000215  0.000201  0.000250 -0.000983
  6O   1dxz      -0.000000 -0.000000 -0.000000  0.000000 -0.000000 -0.000000
  6O   1dyz       0.000000  0.000000  0.000000  0.000000  0.000000 -0.000000
  6O   1dx2y2     0.000024 -0.000098 -0.000180  0.000145  0.000081 -0.001565
  6O   1dxy       0.000025  0.000047  0.000061  0.000168 -0.000241  0.000441
  6O   2dz2       0.000061 -0.000118 -0.000648 -0.001474 -0.002395 -0.001949
  6O   2dxz       0.000000  0.000000  0.000000 -0.000000  0.000000  0.000000
  6O   2dyz      -0.000000 -0.000000  0.000000 -0.000000 -0.000001 -0.000001
  6O   2dx2y2    -0.000175 -0.000138  0.001092 -0.000370 -0.001383 -0.003364
  6O   2dxy      -0.000460 -0.000671 -0.000476  0.000833  0.000298  0.001192
  7O   1s         0.000612  1.010189  0.000774  0.000314  0.001686  0.000507
  7O   2s         0.000579  0.024939 -0.000467  0.000537  0.002826  0.000906
  7O   3s        -0.002795 -0.051788  0.005139 -0.003874 -0.015570 -0.003011
  7O   4s        -0.001558 -0.029094  0.010080 -0.007609 -0.006279 -0.000923
  7O   1pz       -0.000000  0.000000  0.000000  0.000000  0.000000  0.000000
  7O   1px       -0.000183 -0.000648 -0.000088  0.000007  0.000448  0.000028
  7O   1py        0.000225 -0.001702 -0.000100  0.000174  0.001414 -0.000260
  7O   2pz        0.000000 -0.000000 -0.000001 -0.000000 -0.000000 -0.000000
  7O   2px        0.002168  0.004542 -0.000024  0.001533  0.005399 -0.002536
  7O   2py        0.001941  0.010763 -0.000946  0.001516  0.017277  0.006632
  7O   3pz        0.000000  0.000000 -0.000000 -0.000000 -0.000000 -0.000000
  7O   3px        0.001237  0.003524 -0.000667  0.000948  0.000580 -0.002868
  7O   3py       -0.001045  0.006787 -0.001150  0.001921 -0.000807  0.000637
  7O   1dz2       0.000014  0.000113 -0.000042  0.000082  0.001069 -0.000113
  7O   1dxz       0.000000 -0.000000 -0.000000  0.000000 -0.000000  0.000000
  7O   1dyz       0.000000  0.000000 -0.000000  0.000000  0.000000  0.000000
  7O   1dx2y2     0.000212 -0.000171 -0.000078  0.000066  0.001398  0.000287
  7O   1dxy      -0.000006  0.000090  0.000078 -0.000085 -0.001012  0.000364
  7O   2dz2       0.000906 -0.000181  0.000121  0.000316  0.003379  0.001945
  7O   2dxz      -0.000000  0.000000  0.000000  0.000000  0.000000 -0.000000
  7O   2dyz      -0.000000 -0.000000  0.000000  0.000000  0.000000  0.000000
  7O   2dx2y2     0.000248  0.000742 -0.000057 -0.000044  0.004091  0.001755
  7O   2dxy       0.000103 -0.000686 -0.000686 -0.000115 -0.003492 -0.000493
  8O   1s         1.009739  0.000156  0.000226  0.000232  0.002205  0.000248
  8O   2s         0.024161  0.000706 -0.000232  0.000402  0.003743  0.000491
  8O   3s        -0.044049 -0.003764  0.002017 -0.003639 -0.013110  0.004217
  8O   4s        -0.031210  0.013553  0.007854 -0.006630 -0.006083  0.017611
  8O   1pz       -0.000000  0.000000 -0.000000 -0.000000  0.000000 -0.000000
  8O   1px       -0.001449 -0.000042 -0.000057  0.000128 -0.000022 -0.000509
  8O   1py        0.000202 -0.000050 -0.000031  0.000016  0.000300  0.000291
  8O   2pz        0.000000  0.000000  0.000000  0.000000  0.000000  0.000000
  8O   2px        0.007920  0.003474  0.000256  0.000385  0.011263  0.003187
  8O   2py       -0.007553 -0.002731 -0.000139 -0.000534 -0.011848 -0.002801
  8O   3pz        0.000000 -0.000000  0.000000  0.000000  0.000000 -0.000000
  8O   3px        0.006819 -0.003869 -0.001923  0.000177  0.001251 -0.005580
  8O   3py       -0.002609  0.001946  0.000512 -0.000933 -0.002716  0.001284
  8O   1dz2      -0.000099  0.000135  0.000059  0.000077  0.000905 -0.000334
  8O   1dxz       0.000000 -0.000000 -0.000000 -0.000000 -0.000000  0.000000
  8O   1dyz       0.000000  0.000000 -0.000000  0.000000 -0.000000 -0.000000
  8O   1dx2y2    -0.000297  0.000230  0.000032 -0.000116  0.000273  0.000178
  8O   1dxy       0.000201  0.000051 -0.000048  0.000046  0.000912 -0.000143
  8O   2dz2       0.000463  0.000532 -0.000105 -0.000178  0.002905  0.002536
  8O   2dxz      -0.000000 -0.000000 -0.000000 -0.000000 -0.000000 -0.000000
  8O   2dyz      -0.000000  0.000000  0.000000 -0.000000  0.000000  0.000000
  8O   2dx2y2     0.000809 -0.000090 -0.000481  0.000300 -0.001659 -0.000104
  8O   2dxy       0.001451  0.001223  0.000487 -0.000155  0.005424  0.001274
  9H   1s         0.000204 -0.000307 -0.000536  0.000071 -0.000063  0.000603
  9H   2s         0.010191 -0.014902 -0.001482  0.001565 -0.000824 -0.018150
  9H   3s        -0.001242  0.003551 -0.001157  0.000746 -0.000601  0.003060
  9H   1pz       -0.000000  0.000000 -0.000000 -0.000000 -0.000000  0.000000
  9H   1px       -0.001004  0.000008 -0.000135  0.000208 -0.000840  0.000520
  9H   1py       -0.000666  0.000064  0.000141 -0.000007  0.001766 -0.000526
  9H   2pz        0.000000 -0.000000  0.000000 -0.000000 -0.000000 -0.000000
  9H   2px        0.003535 -0.000450 -0.000264  0.000005 -0.002583  0.002800
  9H   2py        0.003511 -0.004828 -0.000714  0.000883 -0.000515 -0.005615
                      6         7         8         9        10        11   
                  -0.86551  -0.80976  -0.78734  -0.59222  -0.48001  -0.38896
                   2.00000   2.00000   2.00000   2.00000   2.00000   2.00000
                  --------  --------  --------  --------  --------  --------
  0C   1s        -0.011522  0.017175  0.012524  0.019260 -0.014182 -0.004604
  0C   2s         0.084361 -0.140093 -0.115145 -0.138162  0.202507  0.053016
  0C   3s        -0.032983 -0.209001 -0.113793 -0.032733  0.233250  0.042157
  0C   4s        -0.076244  0.057401  0.181428 -0.137568 -0.041764  0.109060
  0C   1pz        0.000005 -0.000013 -0.000010  0.000004  0.000001 -0.000005
  0C   1px        0.026430  0.022726  0.028732  0.047688  0.215898  0.035883
  0C   1py       -0.031792  0.134703  0.078519 -0.153435  0.088878  0.056301
  0C   2pz       -0.000003 -0.000003  0.000001  0.000004 -0.000001  0.000000
  0C   2px       -0.111191 -0.085689  0.076639  0.073272  0.111399  0.115435
  0C   2py       -0.017003 -0.068204 -0.027555 -0.084000  0.072834 -0.001349
  0C   3pz       -0.000001  0.000002  0.000001 -0.000002 -0.000001 -0.000001
  0C   3px        0.011466  0.043567 -0.016443 -0.015069  0.022682 -0.045246
  0C   3py       -0.009517 -0.024068  0.028224 -0.019944 -0.014520  0.022437
  0C   1dz2      -0.008927  0.013254  0.009121  0.005557 -0.003725 -0.001215
  0C   1dxz       0.000000  0.000001  0.000001 -0.000000  0.000002  0.000000
  0C   1dyz      -0.000001  0.000005  0.000003 -0.000002  0.000001  0.000001
  0C   1dx2y2    -0.003505  0.019619  0.020139 -0.013007  0.012891 -0.005501
  0C   1dxy       0.006615 -0.000923 -0.009502  0.013136  0.006118  0.000035
  0C   2dz2      -0.012340 -0.003036 -0.003516  0.015260  0.001589 -0.004349
  0C   2dxz       0.000003 -0.000003  0.000002  0.000002 -0.000004  0.000000
  0C   2dyz       0.000003 -0.000009 -0.000006  0.000002 -0.000002 -0.000002
  0C   2dx2y2     0.048694 -0.093401 -0.040383  0.090393 -0.045416 -0.015196
  0C   2dxy      -0.057419  0.012506  0.045376 -0.001185  0.042513  0.048290
  1C   1s        -0.026897 -0.005319  0.000004  0.005027 -0.017702  0.003775
  1C   2s         0.204142  0.079882 -0.035277 -0.040513  0.213189 -0.146184
  1C   3s         0.134428  0.184713 -0.077125 -0.108100  0.127114 -0.231189
  1C   4s        -0.013970 -0.064713 -0.114683  0.167310  0.030448  0.002414
  1C   1pz        0.000001 -0.000001  0.000001  0.000002 -0.000005 -0.000012
  1C   1px        0.066130  0.047260  0.039808  0.075262 -0.203506 -0.241337
  1C   1py        0.024011  0.153408 -0.164106  0.026836 -0.098712  0.082383
  1C   2pz       -0.000006  0.000002 -0.000000 -0.000000  0.000004 -0.000002
  1C   2px       -0.147217 -0.091573  0.005190  0.039672  0.023417 -0.009162
  1C   2py        0.023999 -0.084250  0.003716  0.090889 -0.058967  0.028080
  1C   3pz        0.000001  0.000001  0.000001 -0.000001  0.000000  0.000001
  1C   3px        0.004960  0.006277  0.022469 -0.036144 -0.022352  0.011839
  1C   3py       -0.008140 -0.003392  0.016513 -0.004726  0.005138 -0.002045
  1C   1dz2      -0.020347 -0.006473  0.003104  0.001008 -0.004609  0.006645
  1C   1dxz       0.000000  0.000000  0.000000 -0.000001  0.000001 -0.000001
  1C   1dyz      -0.000000  0.000000 -0.000000  0.000000  0.000000  0.000001
  1C   1dx2y2    -0.018496 -0.014726  0.004928 -0.011218  0.012081 -0.018150
  1C   1dxy       0.000226  0.009214 -0.030509  0.005449  0.002275  0.013793
  1C   2dz2       0.010318  0.010420  0.000646 -0.001386 -0.006866 -0.005637
  1C   2dxz       0.000003 -0.000001 -0.000001  0.000002 -0.000002  0.000001
  1C   2dyz       0.000000  0.000003  0.000005 -0.000003  0.000000  0.000002
  1C   2dx2y2     0.058199  0.048528 -0.037748  0.015570 -0.043437 -0.014368
  1C   2dxy       0.022494 -0.006295  0.049817 -0.053361  0.000995  0.003116
  2C   1s        -0.001031  0.003677  0.002788  0.025112  0.006218 -0.000922
  2C   2s         0.017334 -0.023626 -0.035866 -0.350907 -0.151434 -0.030045
  2C   3s        -0.091938  0.026409  0.045982 -0.121273  0.010013  0.061553
  2C   4s         0.058016  0.039335 -0.097034 -0.024370  0.019627 -0.116877
  2C   1pz        0.000000 -0.000001 -0.000001 -0.000004 -0.000002 -0.000002
  2C   1px        0.008515 -0.006479 -0.013582 -0.033763  0.105204  0.074346
  2C   1py       -0.006885  0.017726  0.016319  0.014177 -0.023233  0.005656
  2C   2pz       -0.000001  0.000004  0.000001  0.000005  0.000003 -0.000001
  2C   2px       -0.026997 -0.009225  0.041093 -0.003940  0.011191  0.065066
  2C   2py        0.055647 -0.010772 -0.051316  0.069453 -0.017998 -0.064758
  2C   3pz       -0.000001  0.000001  0.000000 -0.000001  0.000001  0.000001
  2C   3px        0.011610  0.000801 -0.012742 -0.008211  0.000913 -0.015027
  2C   3py       -0.007058 -0.005507  0.012716  0.014629  0.000005  0.011949
  2C   1dz2      -0.001034  0.001982  0.002460  0.004259 -0.004467 -0.003185
  2C   1dxz       0.000000 -0.000001 -0.000000  0.000000  0.000000 -0.000000
  2C   1dyz      -0.000000  0.000000  0.000000 -0.000000 -0.000000  0.000000
  2C   1dx2y2     0.000991  0.002478  0.002211 -0.003169  0.007488  0.000751
  2C   1dxy      -0.002829  0.004155  0.004782  0.006074 -0.004306 -0.002256
  2C   2dz2      -0.001542  0.001148 -0.000978  0.007893  0.013170  0.000305
  2C   2dxz      -0.000002  0.000003  0.000003 -0.000003  0.000001  0.000002
  2C   2dyz      -0.000003  0.000001  0.000000 -0.000001  0.000003  0.000001
  2C   2dx2y2     0.018883 -0.015201 -0.003848  0.019942 -0.015640  0.005437
  2C   2dxy       0.013594 -0.005197 -0.021500  0.023953  0.001681 -0.018446
  3H   1s         0.005165 -0.009179 -0.011627 -0.147195 -0.107995 -0.044652
  3H   2s        -0.017192  0.014195  0.027117 -0.031393 -0.031484 -0.000703
  3H   3s         0.003634 -0.000250  0.000229  0.001367  0.001661 -0.005061
  3H   1pz       -0.000749  0.001488  0.001792  0.017938  0.011501  0.003854
  3H   1px        0.000620 -0.000563 -0.001385 -0.013406 -0.005000 -0.000781
  3H   1py        0.000022 -0.000350 -0.000260 -0.003481 -0.002926 -0.000222
  3H   2pz        0.006526 -0.003607 -0.007736  0.012404  0.005301  0.000258
  3H   2px        0.001956  0.004417  0.003625 -0.003852 -0.008411 -0.001267
  3H   2py       -0.001758 -0.000695 -0.002760 -0.004257 -0.001360 -0.000097
  4H   1s         0.005165 -0.009179 -0.011627 -0.147191 -0.107998 -0.044653
  4H   2s        -0.017195  0.014199  0.027111 -0.031377 -0.031474 -0.000709
  4H   3s         0.003630 -0.000247  0.000230  0.001363  0.001663 -0.005060
  4H   1pz        0.000749 -0.001487 -0.001792 -0.017937 -0.011501 -0.003854
  4H   1px        0.000620 -0.000563 -0.001385 -0.013408 -0.005001 -0.000781
  4H   1py        0.000022 -0.000350 -0.000260 -0.003482 -0.002927 -0.000222
  4H   2pz       -0.006527  0.003609  0.007734 -0.012399 -0.005297 -0.000260
  4H   2px        0.001954  0.004420  0.003625 -0.003852 -0.008409 -0.001268
  4H   2py       -0.001759 -0.000695 -0.002760 -0.004256 -0.001359 -0.000097
  5H   1s         0.005307 -0.002435 -0.010037 -0.157073 -0.065737  0.011502
  5H   2s         0.010113 -0.042508  0.029990 -0.048013 -0.057859  0.050961
  5H   3s        -0.001128  0.007091 -0.003448 -0.009137 -0.004150  0.006921
  5H   1pz        0.000000 -0.000000 -0.000000 -0.000001 -0.000000 -0.000000
  5H   1px        0.000044  0.000218 -0.001092  0.008184  0.006130  0.002957
  5H   1py       -0.001835  0.001512  0.002512  0.021726  0.008145  0.000497
  5H   2pz        0.000002 -0.000002 -0.000001 -0.000000 -0.000002 -0.000000
  5H   2px       -0.000916  0.006714  0.005557  0.000074  0.006968 -0.002747
  5H   2py       -0.006710  0.016081 -0.006031  0.017966  0.023479 -0.005571
  6O   1s        -0.006525  0.017907  0.012078 -0.004940  0.002543  0.000117
  6O   2s         0.103745 -0.295198 -0.219802  0.125338 -0.112135 -0.032660
  6O   3s         0.124812 -0.371239 -0.261953  0.178443 -0.158244 -0.056703
  6O   4s         0.050312 -0.107647 -0.066016  0.063069 -0.018856 -0.036620
  6O   1pz       -0.000004  0.000010  0.000007 -0.000001 -0.000002 -0.000003
  6O   1px        0.014983 -0.020931 -0.004482  0.015994  0.060895  0.048779
  6O   1py        0.039346 -0.102666 -0.075624 -0.008520  0.047363 -0.007281
  6O   2pz       -0.000000  0.000005  0.000002 -0.000002 -0.000002 -0.000001
  6O   2px        0.008259 -0.007655 -0.002980  0.010501  0.039869  0.035186
  6O   2py        0.011688 -0.034140 -0.024097 -0.018024  0.036596 -0.001369
  6O   3pz       -0.000001  0.000002  0.000001 -0.000002  0.000000  0.000001
  6O   3px        0.003613 -0.012962 -0.000880 -0.000579 -0.001907  0.007928
  6O   3py        0.010976 -0.014208 -0.014088  0.011517  0.004980 -0.006382
  6O   1dz2      -0.002646  0.005555  0.003511 -0.000175 -0.000965 -0.000078
  6O   1dxz      -0.000000  0.000000  0.000000 -0.000000 -0.000000 -0.000000
  6O   1dyz      -0.000001  0.000002  0.000001 -0.000000  0.000000  0.000000
  6O   1dx2y2    -0.002411  0.007976  0.006287  0.000161 -0.000557  0.002249
  6O   1dxy       0.001797 -0.002717 -0.001487  0.001632  0.005073  0.000891
  6O   2dz2       0.003493 -0.005352 -0.003479  0.004754 -0.006483 -0.003676
  6O   2dxz      -0.000000  0.000000 -0.000000 -0.000000 -0.000001 -0.000001
  6O   2dyz       0.000001 -0.000001 -0.000001  0.000001 -0.000001 -0.000000
  6O   2dx2y2     0.002785 -0.006885 -0.005146  0.009386 -0.005042 -0.000673
  6O   2dxy       0.002179  0.003683 -0.000626  0.000182  0.006887  0.003155
  7O   1s        -0.013512 -0.013764  0.010436 -0.001164  0.002694 -0.003861
  7O   2s         0.220374  0.250868 -0.209438  0.055900 -0.110353  0.105061
  7O   3s         0.249419  0.303394 -0.240704  0.060224 -0.154385  0.154214
  7O   4s         0.028145  0.067959 -0.029270 -0.016173 -0.038330  0.044613
  7O   1pz        0.000000  0.000000  0.000000  0.000000 -0.000001 -0.000006
  7O   1px       -0.024705 -0.030749  0.033710  0.017556 -0.060752 -0.071477
  7O   1py       -0.092651 -0.087699  0.062779 -0.006956 -0.033738  0.155381
  7O   2pz        0.000000 -0.000001 -0.000001  0.000001 -0.000001 -0.000005
  7O   2px       -0.007098 -0.005554  0.011216  0.023444 -0.036102 -0.045157
  7O   2py       -0.028402 -0.018576  0.002605  0.004531 -0.031763  0.081693
  7O   3pz       -0.000000 -0.000000 -0.000001  0.000000 -0.000000 -0.000001
  7O   3px       -0.005710 -0.003744 -0.000776  0.010026  0.006433 -0.003146
  7O   3py        0.005035 -0.007802  0.001676  0.000551 -0.000293  0.000263
  7O   1dz2      -0.005183 -0.005125  0.003767 -0.000012 -0.000754  0.002884
  7O   1dxz       0.000000  0.000000 -0.000000  0.000000  0.000000  0.000000
  7O   1dyz      -0.000000 -0.000000  0.000000 -0.000000  0.000000  0.000000
  7O   1dx2y2    -0.007485 -0.006526  0.003294 -0.001302  0.001434  0.008140
  7O   1dxy       0.004180  0.005150 -0.005531 -0.001079  0.004227  0.002914
  7O   2dz2       0.003208  0.007344 -0.007139  0.002524 -0.005213 -0.000305
  7O   2dxz      -0.000000 -0.000000  0.000000 -0.000000  0.000000  0.000000
  7O   2dyz      -0.000000  0.000000  0.000000 -0.000000  0.000000  0.000001
  7O   2dx2y2     0.001464  0.006561 -0.010868 -0.000007 -0.005349  0.003204
  7O   2dxy      -0.005620 -0.006806 -0.000002 -0.003626  0.009410  0.004480
  8O   1s        -0.015809  0.003063 -0.012942  0.000263  0.001355  0.001043
  8O   2s         0.278543 -0.073628  0.292327  0.009149 -0.109502  0.023413
  8O   3s         0.312259 -0.076859  0.325439 -0.000903 -0.148406 -0.008652
  8O   4s         0.026294 -0.050561  0.129003 -0.077076 -0.015531  0.007754
  8O   1pz       -0.000005  0.000001 -0.000005  0.000000 -0.000000 -0.000014
  8O   1px       -0.078977  0.027725 -0.067318  0.007320 -0.079361 -0.006967
  8O   1py        0.021573  0.021678 -0.013530 -0.003093  0.072976 -0.434196
  8O   2pz        0.000000  0.000000  0.000001 -0.000000 -0.000001 -0.000004
  8O   2px       -0.026005  0.005641 -0.009519  0.000549 -0.055271  0.017533
  8O   2py        0.061045 -0.000764  0.030437  0.000887  0.023558 -0.177302
  8O   3pz       -0.000000  0.000001 -0.000001  0.000001  0.000000 -0.000002
  8O   3px       -0.005972  0.014785 -0.030340  0.021171  0.002807 -0.015443
  8O   3py        0.007990 -0.006080  0.008983 -0.010134  0.009457 -0.031587
  8O   1dz2      -0.006469  0.001188 -0.004186  0.000053 -0.000826 -0.000182
  8O   1dxz       0.000001 -0.000000  0.000001 -0.000000  0.000000  0.000001
  8O   1dyz       0.000000 -0.000000  0.000000  0.000000 -0.000000  0.000001
  8O   1dx2y2    -0.000743 -0.002052  0.001170 -0.001419  0.004925  0.001387
  8O   1dxy      -0.002327 -0.001109  0.000728  0.000807 -0.005674  0.017849
  8O   2dz2       0.007042 -0.003852  0.009474 -0.000625 -0.008180  0.009242
  8O   2dxz      -0.000001  0.000001 -0.000001 -0.000000  0.000001 -0.000002
  8O   2dyz      -0.000002  0.000001 -0.000001 -0.000000  0.000000 -0.000002
  8O   2dx2y2    -0.000566 -0.004192  0.001614 -0.000475  0.008540  0.003508
  8O   2dxy      -0.019344  0.002341 -0.010318 -0.001948  0.001128 -0.024163
  9H   1s         0.132204 -0.058769  0.134774  0.009917 -0.056886  0.292380
  9H   2s         0.022476  0.047794 -0.041983  0.043963 -0.038299  0.070113
  9H   3s        -0.003273 -0.013726  0.011660 -0.003113  0.001521  0.006275
  9H   1pz        0.000002 -0.000001  0.000002  0.000000 -0.000001  0.000003
  9H   1px        0.011819 -0.002417  0.015498 -0.000600 -0.008947  0.025286
  9H   1py        0.022031 -0.008526  0.023115  0.000810 -0.003616  0.023866
  9H   2pz        0.000001  0.000001 -0.000001  0.000000 -0.000001 -0.000000
  9H   2px        0.013742 -0.008118  0.002025 -0.002591  0.004899 -0.000550
  9H   2py        0.009258  0.012635 -0.011870  0.012789 -0.014446  0.007652
                     12        13        14        15        16        17   
                  -0.34490  -0.30988  -0.30858  -0.28806  -0.26242  -0.25725
                   2.00000   2.00000   2.00000   2.00000   2.00000   2.00000
                  --------  --------  --------  --------  --------  --------
  0C   1s        -0.005025  0.003021 -0.000001  0.002080  0.000000  0.000430
  0C   2s         0.176872 -0.032790  0.000015 -0.034850  0.000004  0.036149
  0C   3s         0.168601 -0.195264  0.000079 -0.111377  0.000014  0.150880
  0C   4s        -0.055770  0.013911  0.000085 -0.097206 -0.000041 -0.016570
  0C   1pz        0.000005  0.000127  0.209227  0.000012  0.077337  0.000008
  0C   1px       -0.261851 -0.086129  0.000063  0.019418  0.000010  0.016398
  0C   1py        0.003978  0.212027 -0.000132 -0.032048 -0.000017 -0.291028
  0C   2pz        0.000002  0.000054  0.088227  0.000004  0.030711 -0.000001
  0C   2px       -0.075760  0.090649 -0.000098 -0.335247  0.000031  0.010431
  0C   2py       -0.046191  0.029742  0.000011 -0.056682 -0.000011 -0.011732
  0C   3pz       -0.000001 -0.000004 -0.000507  0.000003  0.001764  0.000001
  0C   3px       -0.015335 -0.008312 -0.000000 -0.004589  0.000003 -0.031103
  0C   3py       -0.019140 -0.003667  0.000021 -0.012504 -0.000004 -0.006212
  0C   1dz2      -0.000836  0.005183 -0.000001  0.000830  0.000001 -0.008054
  0C   1dxz      -0.000002 -0.000005 -0.006907 -0.000001  0.020719 -0.000002
  0C   1dyz      -0.000001  0.000004  0.003685  0.000001 -0.005236 -0.000003
  0C   1dx2y2    -0.000670 -0.004813  0.000003  0.012598 -0.000002 -0.034568
  0C   1dxy       0.006908  0.006680 -0.000006  0.009658  0.000001  0.006371
  0C   2dz2       0.005382  0.003485  0.000001  0.006107 -0.000001 -0.010100
  0C   2dxz       0.000003 -0.000030 -0.045210 -0.000005  0.047672 -0.000003
  0C   2dyz       0.000001  0.000001  0.009585  0.000002  0.004493  0.000005
  0C   2dx2y2     0.078564 -0.108941  0.000017  0.089895  0.000017  0.010016
  0C   2dxy      -0.040728  0.089788 -0.000037 -0.121850 -0.000010 -0.013178
  1C   1s         0.004997  0.001620 -0.000002 -0.002743  0.000001  0.004456
  1C   2s        -0.089324  0.040989 -0.000034  0.098942 -0.000000 -0.008936
  1C   3s        -0.093500  0.054029  0.000022  0.330354 -0.000030 -0.048510
  1C   4s         0.095907  0.081335 -0.000102  0.040837  0.000024  0.071797
  1C   1pz        0.000004  0.000089  0.142362 -0.000000  0.297092 -0.000024
  1C   1px        0.058758  0.000844 -0.000010 -0.021472 -0.000020  0.043401
  1C   1py        0.042449  0.227357 -0.000158  0.206146  0.000023  0.167403
  1C   2pz       -0.000001  0.000055  0.082473 -0.000003  0.099827 -0.000008
  1C   2px       -0.005310  0.032533 -0.000032 -0.242202  0.000002  0.053487
  1C   2py        0.085537 -0.020654 -0.000046  0.056967  0.000028  0.036117
  1C   3pz        0.000000  0.000009  0.009270 -0.000002  0.005067 -0.000002
  1C   3px       -0.016216 -0.023427  0.000028  0.016990 -0.000008 -0.008195
  1C   3py       -0.005398  0.006044 -0.000004  0.004039 -0.000002 -0.004198
  1C   1dz2       0.000853 -0.002046  0.000001 -0.004351  0.000001 -0.000944
  1C   1dxz      -0.000000 -0.000004 -0.006125 -0.000001  0.010512 -0.000002
  1C   1dyz      -0.000000 -0.000001 -0.001739  0.000000  0.005837 -0.000000
  1C   1dx2y2     0.011993  0.002496 -0.000001 -0.022276 -0.000000 -0.008098
  1C   1dxy      -0.001207 -0.003468  0.000002  0.015933  0.000001  0.021148
  1C   2dz2       0.001478 -0.003935 -0.000001  0.001897  0.000003 -0.000244
  1C   2dxz       0.000002 -0.000010 -0.014456  0.000002  0.001727  0.000000
  1C   2dyz      -0.000002 -0.000017 -0.027918 -0.000003  0.008524 -0.000003
  1C   2dx2y2     0.043850 -0.010055 -0.000007  0.095858  0.000007 -0.011969
  1C   2dxy      -0.035535  0.004817  0.000027 -0.002285 -0.000014 -0.007512
  2C   1s         0.000494 -0.002361  0.000002  0.002767 -0.000001  0.001944
  2C   2s        -0.052444 -0.012480  0.000006  0.001598 -0.000002 -0.008926
  2C   3s         0.017665  0.185757 -0.000117 -0.200569 -0.000006 -0.096720
  2C   4s        -0.005440 -0.068511  0.000014  0.092990  0.000008 -0.009014
  2C   1pz        0.000008  0.000248  0.382391  0.000033 -0.227807  0.000013
  2C   1px        0.147109  0.236660 -0.000138 -0.262525 -0.000017 -0.015487
  2C   1py       -0.296477  0.054606 -0.000013 -0.209842  0.000011  0.248354
  2C   2pz        0.000001  0.000022  0.038097  0.000005 -0.014414  0.000001
  2C   2px        0.098584  0.129214 -0.000113 -0.113229  0.000005 -0.108971
  2C   2py       -0.028715 -0.145434  0.000073  0.170269  0.000007  0.072639
  2C   3pz       -0.000002 -0.000010 -0.015319 -0.000002  0.004214  0.000001
  2C   3px        0.004123 -0.004339 -0.000009  0.010278  0.000003 -0.012170
  2C   3py        0.011065  0.009991 -0.000007 -0.000935 -0.000001  0.008292
  2C   1dz2      -0.005227 -0.008862  0.000008  0.009290 -0.000001 -0.002221
  2C   1dxz       0.000000 -0.000003 -0.003984 -0.000000  0.012388 -0.000001
  2C   1dyz      -0.000000 -0.000006 -0.009285 -0.000000  0.000241 -0.000000
  2C   1dx2y2    -0.000013 -0.000318 -0.000001  0.007726  0.000000 -0.012977
  2C   1dxy      -0.015190 -0.002826  0.000002 -0.000644  0.000001  0.004516
  2C   2dz2      -0.013221  0.019194 -0.000012 -0.042078  0.000003  0.034536
  2C   2dxz      -0.000001  0.000032  0.039624 -0.000005 -0.024223  0.000002
  2C   2dyz      -0.000001  0.000026  0.036036 -0.000001 -0.039079  0.000005
  2C   2dx2y2     0.011097 -0.021416  0.000005  0.027905  0.000001  0.002998
  2C   2dxy       0.025304 -0.046455  0.000029  0.081549 -0.000004 -0.010378
  3H   1s        -0.061372 -0.118530  0.245420  0.150089 -0.162801 -0.035451
  3H   2s        -0.002143 -0.038109  0.202882  0.083094 -0.147297 -0.091254
  3H   3s         0.002177 -0.000511  0.028977  0.006004 -0.015868 -0.012688
  3H   1pz        0.005679  0.008922 -0.006377 -0.010306  0.003059  0.001355
  3H   1px       -0.000162 -0.000009  0.013969  0.000494 -0.008134 -0.001686
  3H   1py       -0.009871  0.000618  0.002503 -0.005297 -0.000756  0.007639
  3H   2pz        0.004753 -0.002107 -0.026518  0.001461  0.017283  0.010619
  3H   2px        0.003460 -0.012562  0.016456  0.021991 -0.010273 -0.016774
  3H   2py        0.001047 -0.002846 -0.001567  0.009381  0.002154 -0.006739
  4H   1s        -0.061381 -0.118865 -0.245268  0.150070  0.162801 -0.035478
  4H   2s        -0.002150 -0.038398 -0.202865  0.083086  0.147308 -0.091276
  4H   3s         0.002171 -0.000547 -0.028987  0.005999  0.015871 -0.012689
  4H   1pz       -0.005679 -0.008931 -0.006364  0.010306  0.003058 -0.001356
  4H   1px       -0.000163 -0.000029 -0.013970  0.000495  0.008134 -0.001687
  4H   1py       -0.009871  0.000615 -0.002503 -0.005297  0.000757  0.007639
  4H   2pz       -0.004753  0.002068 -0.026523 -0.001463  0.017285 -0.010619
  4H   2px        0.003459 -0.012587 -0.016452  0.021993  0.010277 -0.016778
  4H   2py        0.001048 -0.002844  0.001568  0.009382 -0.002154 -0.006740
  5H   1s        -0.202147  0.101351 -0.000055 -0.245208  0.000009  0.197265
  5H   2s        -0.159877  0.116859 -0.000049 -0.310212  0.000007  0.208447
  5H   3s        -0.016999 -0.001976  0.000006 -0.024085  0.000000  0.015120
  5H   1pz       -0.000000  0.000008  0.011836  0.000001 -0.006082  0.000001
  5H   1px        0.009856  0.005249 -0.000003 -0.002788 -0.000001 -0.003791
  5H   1py        0.011504 -0.005671  0.000003  0.012980 -0.000000 -0.008760
  5H   2pz       -0.000001 -0.000006 -0.007811 -0.000001  0.014923  0.000000
  5H   2px        0.000191  0.002609  0.000000 -0.012954  0.000000 -0.007219
  5H   2py        0.037289 -0.013036  0.000000  0.054273 -0.000000 -0.041937
  6O   1s         0.002982 -0.003361  0.000003 -0.000889  0.000000  0.006485
  6O   2s        -0.105916  0.108269 -0.000072 -0.016066 -0.000007 -0.078640
  6O   3s        -0.151536  0.150475 -0.000114  0.010984 -0.000008 -0.169367
  6O   4s        -0.029362 -0.007826 -0.000035  0.037405  0.000012 -0.065537
  6O   1pz       -0.000017  0.000116  0.139266  0.000007  0.076121 -0.000057
  6O   1px       -0.116088 -0.114494  0.000080  0.007143  0.000020  0.111164
  6O   1py        0.215357 -0.221031  0.000162 -0.008310  0.000035  0.384227
  6O   2pz       -0.000011  0.000074  0.088638  0.000002  0.056616 -0.000031
  6O   2px       -0.080022 -0.069100  0.000055  0.013469  0.000008  0.062347
  6O   2py        0.115221 -0.106552  0.000083 -0.011063  0.000020  0.200439
  6O   3pz       -0.000002  0.000013  0.010639 -0.000003  0.013393 -0.000006
  6O   3px       -0.008921 -0.024440  0.000017  0.005568  0.000002  0.020925
  6O   3py        0.016694 -0.024987  0.000003  0.004189  0.000009  0.039083
  6O   1dz2      -0.003443  0.004770 -0.000004 -0.000596 -0.000001 -0.005787
  6O   1dxz       0.000001  0.000001  0.000495 -0.000000  0.001744 -0.000001
  6O   1dyz      -0.000001  0.000006  0.006892  0.000000  0.002723 -0.000003
  6O   1dx2y2    -0.008799  0.005183 -0.000004  0.001119 -0.000001 -0.010302
  6O   1dxy      -0.005150 -0.005691  0.000004  0.000022  0.000001  0.005598
  6O   2dz2       0.001984 -0.005266 -0.000001  0.003317 -0.000000  0.006829
  6O   2dxz       0.000001  0.000004  0.005912 -0.000000 -0.000834  0.000000
  6O   2dyz      -0.000001  0.000005  0.007985  0.000001  0.005748  0.000001
  6O   2dx2y2    -0.005074 -0.010395  0.000005  0.005603  0.000001  0.010482
  6O   2dxy      -0.007038 -0.003500  0.000004  0.005983 -0.000001 -0.001909
  7O   1s        -0.000082  0.005708 -0.000004  0.004258  0.000000  0.003470
  7O   2s         0.028501 -0.114052  0.000081 -0.090841 -0.000004 -0.047443
  7O   3s         0.051675 -0.206244  0.000143 -0.154826 -0.000006 -0.109219
  7O   4s         0.008181 -0.106106  0.000074 -0.024569 -0.000004 -0.078069
  7O   1pz        0.000002  0.000065  0.103186  0.000002  0.291007 -0.000024
  7O   1px        0.047427 -0.144170  0.000096 -0.139433 -0.000024 -0.069114
  7O   1py        0.024604 -0.236686  0.000176 -0.305579 -0.000009 -0.196508
  7O   2pz        0.000002  0.000048  0.076625  0.000002  0.187058 -0.000015
  7O   2px        0.033779 -0.079917  0.000047 -0.072487 -0.000014 -0.039087
  7O   2py        0.019259 -0.111334  0.000085 -0.148143 -0.000004 -0.095088
  7O   3pz        0.000000  0.000008  0.014029  0.000001  0.029463 -0.000002
  7O   3px        0.004074 -0.000273 -0.000002 -0.030406 -0.000000  0.000675
  7O   3py        0.003248 -0.006757  0.000007 -0.033312 -0.000000 -0.007336
  7O   1dz2       0.000251 -0.005455  0.000004 -0.006068 -0.000000 -0.003466
  7O   1dxz      -0.000000 -0.000001 -0.002120 -0.000000 -0.004036  0.000000
  7O   1dyz      -0.000000 -0.000003 -0.005121 -0.000000 -0.012405  0.000001
  7O   1dx2y2    -0.000055 -0.004964  0.000004 -0.007469  0.000000 -0.004589
  7O   1dxy      -0.001725  0.007269 -0.000005  0.008841  0.000001  0.003920
  7O   2dz2       0.003578  0.003870 -0.000002  0.007732  0.000000  0.002541
  7O   2dxz      -0.000000 -0.000001 -0.002167 -0.000000 -0.002624  0.000000
  7O   2dyz      -0.000000 -0.000005 -0.008474 -0.000000 -0.012889  0.000001
  7O   2dx2y2     0.001006  0.007772 -0.000004  0.006426  0.000001  0.009060
  7O   2dxy      -0.003299 -0.001682  0.000002 -0.004683  0.000000 -0.002273
  8O   1s        -0.001362 -0.001076  0.000001  0.000373 -0.000001 -0.001230
  8O   2s         0.078934  0.068817 -0.000041 -0.035565  0.000012  0.032386
  8O   3s         0.130420  0.100413 -0.000060 -0.057140  0.000022  0.051489
  8O   4s        -0.021332  0.023548  0.000013 -0.051306 -0.000011  0.006855
  8O   1pz        0.000005  0.000066  0.095131 -0.000009  0.281381 -0.000022
  8O   1px        0.133321  0.179417 -0.000117 -0.041680  0.000027  0.156217
  8O   1py        0.010317 -0.039587  0.000027 -0.176641 -0.000017 -0.070552
  8O   2pz        0.000002  0.000038  0.055688 -0.000005  0.196263 -0.000016
  8O   2px        0.072541  0.114263 -0.000072 -0.021086  0.000013  0.097155
  8O   2py       -0.003000 -0.026710  0.000015 -0.074203 -0.000010 -0.037471
  8O   3pz        0.000000  0.000001  0.002420 -0.000001  0.037965 -0.000002
  8O   3px        0.022804  0.022948 -0.000023 -0.007424  0.000008  0.017728
  8O   3py       -0.010138 -0.007610  0.000009 -0.022658 -0.000002 -0.002721
  8O   1dz2       0.001847  0.002673 -0.000002 -0.001496 -0.000000  0.001915
  8O   1dxz      -0.000000 -0.000003 -0.003588  0.000000 -0.008112  0.000000
  8O   1dyz       0.000000  0.000001  0.001744  0.000000  0.003895 -0.000000
  8O   1dx2y2    -0.003608 -0.005423  0.000004 -0.001194 -0.000000 -0.004267
  8O   1dxy       0.000222  0.002547 -0.000002  0.006174  0.000000  0.002216
  8O   2dz2       0.003675  0.001136 -0.000001  0.005000 -0.000001 -0.001613
  8O   2dxz      -0.000000 -0.000003 -0.003859 -0.000001 -0.015152  0.000001
  8O   2dyz       0.000000  0.000002  0.003129 -0.000001  0.008170 -0.000001
  8O   2dx2y2    -0.004971 -0.009399  0.000007 -0.000236 -0.000000 -0.007311
  8O   2dxy       0.002055 -0.002721  0.000004 -0.012263 -0.000001 -0.000363
  9H   1s        -0.058646 -0.026326  0.000010  0.128413 -0.000011 -0.009967
  9H   2s         0.008120  0.009502 -0.000020  0.094046  0.000006 -0.019227
  9H   3s        -0.009418 -0.002352  0.000003 -0.002810  0.000000  0.002130
  9H   1pz       -0.000000  0.000003  0.004780  0.000001  0.010554 -0.000001
  9H   1px        0.005388  0.005747 -0.000004  0.009655  0.000000  0.004531
  9H   1py       -0.005930 -0.008363  0.000005  0.008383 -0.000002 -0.002980
  9H   2pz        0.000000  0.000005  0.005931  0.000002  0.001208 -0.000002
  9H   2px        0.003063 -0.018237  0.000012  0.003337  0.000003  0.017275
  9H   2py        0.011333 -0.005149 -0.000000  0.024097  0.000003 -0.002014
                     18        19        20        21        22        23   
                  -0.21906  -0.19383  -0.16166  -0.15828  -0.11200  -0.00484
                   2.00000   2.00000   2.00000   2.00000   2.00000   0.00000
                  --------  --------  --------  --------  --------  --------
[...]
Solving eigenvalue problem for the virtual space   ... done
Natural Transition Orbitals were saved in sp_s1_0_wat.s2.nto
Threshold for printing occupation numbers 0.001000

 E=   0.158814 au      4.322 eV    34855.6 cm**-1
    22a ->  23a  : n=  0.95655175
    21a ->  24a  : n=  0.04291942


------------------------------------------
NATURAL TRANSITION ORBITALS FOR STATE    3
------------------------------------------

Making the (pseudo)densities                       ... done
Solving eigenvalue problem for the occupied space  ... done
Solving eigenvalue problem for the virtual space   ... done
Natural Transition Orbitals were saved in sp_s1_0_wat.s3.nto
Threshold for printing occupation numbers 0.001000

 E=   0.208685 au      5.679 eV    45801.1 cm**-1
    22a ->  23a  : n=  0.96746374
    21a ->  24a  : n=  0.01846679
    20a ->  25a  : n=  0.00419213
    19a ->  26a  : n=  0.00304623
    18a ->  27a  : n=  0.00253581
    17a ->  28a  : n=  0.00231896


------------------------------------------
NATURAL TRANSITION ORBITALS FOR STATE    4
------------------------------------------

Making the (pseudo)densities                       ... done
Solving eigenvalue problem for the occupied space  ... done
Solving eigenvalue problem for the virtual space   ... done
Natural Transition Orbitals were saved in sp_s1_0_wat.s4.nto
Threshold for printing occupation numbers 0.001000

 E=   0.236046 au      6.423 eV    51806.2 cm**-1
    22a ->  23a  : n=  0.98799236
    21a ->  24a  : n=  0.01059875


------------------------------------------
NATURAL TRANSITION ORBITALS FOR STATE    5
------------------------------------------

Making the (pseudo)densities                       ... done
Solving eigenvalue problem for the occupied space  ... done
Solving eigenvalue problem for the virtual space   ... done
Natural Transition Orbitals were saved in sp_s1_0_wat.s5.nto
Threshold for printing occupation numbers 0.001000

 E=   0.259982 au      7.074 eV    57059.4 cm**-1
    22a ->  23a  : n=  0.99160077
    21a ->  24a  : n=  0.00667954


------------------------------------------
NATURAL TRANSITION ORBITALS FOR STATE    6
------------------------------------------

Making the (pseudo)densities                       ... done
Solving eigenvalue problem for the occupied space  ... done
Solving eigenvalue problem for the virtual space   ... done
Natural Transition Orbitals were saved in sp_s1_0_wat.s6.nto
Threshold for printing occupation numbers 0.001000

 E=   0.262491 au      7.143 eV    57610.2 cm**-1
    22a ->  23a  : n=  0.89378296
    21a ->  24a  : n=  0.06987455
    20a ->  25a  : n=  0.01669001
    19a ->  26a  : n=  0.00708926
    18a ->  27a  : n=  0.00669666
    17a ->  28a  : n=  0.00201556
    16a ->  29a  : n=  0.00131378


------------------------------------------
NATURAL TRANSITION ORBITALS FOR STATE    7
------------------------------------------

Making the (pseudo)densities                       ... done
Solving eigenvalue problem for the occupied space  ... done
Solving eigenvalue problem for the virtual space   ... done
Natural Transition Orbitals were saved in sp_s1_0_wat.s7.nto
Threshold for printing occupation numbers 0.001000

 E=   0.281411 au      7.658 eV    61762.5 cm**-1
    22a ->  23a  : n=  0.95457009
    21a ->  24a  : n=  0.02966786
    20a ->  25a  : n=  0.01380437
    19a ->  26a  : n=  0.00107762


------------------------------------------
NATURAL TRANSITION ORBITALS FOR STATE    8
------------------------------------------

Making the (pseudo)densities                       ... done
Solving eigenvalue problem for the occupied space  ... done
Solving eigenvalue problem for the virtual space   ... done
Natural Transition Orbitals were saved in sp_s1_0_wat.s8.nto
Threshold for printing occupation numbers 0.001000

 E=   0.288356 au      7.847 eV    63286.9 cm**-1
    22a ->  23a  : n=  0.80930857
    21a ->  24a  : n=  0.18819894
    20a ->  25a  : n=  0.00166292


------------------------------------------
NATURAL TRANSITION ORBITALS FOR STATE    9
------------------------------------------

Making the (pseudo)densities                       ... done
Solving eigenvalue problem for the occupied space  ... done
Solving eigenvalue problem for the virtual space   ... done
Natural Transition Orbitals were saved in sp_s1_0_wat.s9.nto
Threshold for printing occupation numbers 0.001000

 E=   0.292500 au      7.959 eV    64196.3 cm**-1
    22a ->  23a  : n=  0.85430822
    21a ->  24a  : n=  0.14299713


------------------------------------------
NATURAL TRANSITION ORBITALS FOR STATE   10
------------------------------------------

Making the (pseudo)densities                       ... done
Solving eigenvalue problem for the occupied space  ... done
Solving eigenvalue problem for the virtual space   ... done
Natural Transition Orbitals were saved in sp_s1_0_wat.s10.nto
Threshold for printing occupation numbers 0.001000

 E=   0.295942 au      8.053 eV    64951.8 cm**-1
    22a ->  23a  : n=  0.89412989
    21a ->  24a  : n=  0.08022408
    20a ->  25a  : n=  0.00800691
    19a ->  26a  : n=  0.00761613
    18a ->  27a  : n=  0.00415184
    17a ->  28a  : n=  0.00201607
    16a ->  29a  : n=  0.00117209


-----------------------------
TD-DFT/TDA-EXCITATION SPECTRA
-----------------------------

Center of mass = (  0.1107, -0.0308,  0.0000)
Generating CIS transition densities           ... done

----------------------------------------------------------------------------------------------------
                     ABSORPTION SPECTRUM VIA TRANSITION ELECTRIC DIPOLE MOMENTS    
----------------------------------------------------------------------------------------------------
     Transition      Energy     Energy  Wavelength fosc(D2)      D2        DX        DY        DZ   
                      (eV)      (cm-1)    (nm)                 (au**2)    (au)      (au)      (au)  
----------------------------------------------------------------------------------------------------
  0-1A  ->  1-1A    2.976800   24009.5   416.5   0.000039886   0.00055   0.00002   0.00001  -0.02339
  0-1A  ->  2-1A    4.321545   34855.6   286.9   0.000040587   0.00038  -0.00002  -0.00001  -0.01958
  0-1A  ->  3-1A    5.678616   45801.1   218.3   0.047265202   0.33974   0.05109   0.58062   0.00001
  0-1A  ->  4-1A    6.423146   51806.2   193.0   0.004710243   0.02993   0.00003  -0.00002  -0.17301
  0-1A  ->  5-1A    7.074468   57059.4   175.3   0.001577064   0.00910   0.00010   0.00064   0.09539
  0-1A  ->  6-1A    7.142752   57610.2   173.6   0.187188647   1.06968   0.11112   1.02827  -0.00012
  0-1A  ->  7-1A    7.657577   61762.5   161.9   0.005030624   0.02681   0.05945   0.15258  -0.00002
  0-1A  ->  8-1A    7.846575   63286.9   158.0   0.000144452   0.00075   0.00004   0.00001   0.02741
  0-1A  ->  9-1A    7.959324   64196.3   155.8   0.000048217   0.00025  -0.00006  -0.00001  -0.01572
  0-1A  -> 10-1A    8.052991   64951.8   154.0   0.176595883   0.89509   0.93030   0.17211  -0.00002

----------------------------------------------------------------------------------------------------
                     ABSORPTION SPECTRUM VIA TRANSITION VELOCITY DIPOLE MOMENTS    
----------------------------------------------------------------------------------------------------
     Transition      Energy     Energy  Wavelength fosc(P2)      P2        PX        PY        PZ   
                      (eV)      (cm-1)    (nm)                 (au**2)    (au)      (au)      (au)  
----------------------------------------------------------------------------------------------------
  0-1A  ->  1-1A    2.976800   24009.5   416.5   0.002741223   0.00045  -0.00000   0.00000   0.02121
  0-1A  ->  2-1A    4.321545   34855.6   286.9   0.001444886   0.00034  -0.00000  -0.00000  -0.01855
  0-1A  ->  3-1A    5.678616   45801.1   218.3   0.006965920   0.00218  -0.02543   0.03917   0.00000
  0-1A  ->  4-1A    6.423146   51806.2   193.0   0.000004665   0.00000  -0.00001  -0.00000   0.00129
  0-1A  ->  5-1A    7.074468   57059.4   175.3   0.000009034   0.00000   0.00001   0.00001  -0.00188
  0-1A  ->  6-1A    7.142752   57610.2   173.6   0.000935740   0.00037   0.01867   0.00448  -0.00001
  0-1A  ->  7-1A    7.657577   61762.5   161.9   0.000778492   0.00033  -0.01553  -0.00935  -0.00000
  0-1A  ->  8-1A    7.846575   63286.9   158.0   0.000250559   0.00011  -0.00001  -0.00000   0.01041
  0-1A  ->  9-1A    7.959324   64196.3   155.8   0.000491653   0.00022   0.00001  -0.00000  -0.01469
  0-1A  -> 10-1A    8.052991   64951.8   154.0   0.040647388   0.01804  -0.13147   0.02756  -0.00000

------------------------------------------------------------------------------------------
                     CD SPECTRUM VIA TRANSITION ELECTRIC DIPOLE MOMENTS    
------------------------------------------------------------------------------------------
     Transition      Energy     Energy  Wavelength    R        MX        MY        MZ   
                      (eV)      (cm-1)    (nm)   (1e40*cgs)   (au)      (au)      (au)  
------------------------------------------------------------------------------------------
  0-1A  ->  1-1A    2.976800   24009.5   416.5   -0.00073  -0.00816   0.13788  -0.00003
  0-1A  ->  2-1A    4.321545   34855.6   286.9    0.00495   0.18696   0.53155  -0.00003
  0-1A  ->  3-1A    5.678616   45801.1   218.3    0.00525  -0.00002  -0.00002  -0.00861
  0-1A  ->  4-1A    6.423146   51806.2   193.0   -0.00173   0.02943   0.01577  -0.00002
  0-1A  ->  5-1A    7.074468   57059.4   175.3    0.01036   0.29304  -0.09221   0.00008
  0-1A  ->  6-1A    7.142752   57610.2   173.6    0.00083  -0.00018   0.00003   0.14207
  0-1A  ->  7-1A    7.657577   61762.5   161.9   -0.01536  -0.00000   0.00016  -0.46004
  0-1A  ->  8-1A    7.846575   63286.9   158.0    0.00582  -0.03788  -0.32511  -0.00023
  0-1A  ->  9-1A    7.959324   64196.3   155.8    0.00241   0.13690  -0.28994  -0.00005
  0-1A  -> 10-1A    8.052991   64951.8   154.0   -0.01028   0.00002   0.00003   0.05500

------------------------------------------------------------------------------------------
                     CD SPECTRUM VIA TRANSITION VELOCITY DIPOLE MOMENTS    
------------------------------------------------------------------------------------------
     Transition      Energy     Energy  Wavelength    R        MX        MY        MZ   
                      (eV)      (cm-1)    (nm)   (1e40*cgs)   (au)      (au)      (au)  
------------------------------------------------------------------------------------------
  0-1A  ->  1-1A    2.976800   24009.5   416.5   -0.00119  -0.00816   0.13788  -0.00003
  0-1A  ->  2-1A    4.321545   34855.6   286.9   -0.00215   0.18696   0.53155  -0.00003
  0-1A  ->  3-1A    5.678616   45801.1   218.3   -0.00043  -0.00002  -0.00002  -0.00861
  0-1A  ->  4-1A    6.423146   51806.2   193.0   -0.00055   0.02943   0.01577  -0.00002
  0-1A  ->  5-1A    7.074468   57059.4   175.3    0.00269   0.29304  -0.09221   0.00008
  0-1A  ->  6-1A    7.142752   57610.2   173.6   -0.00766  -0.00018   0.00003   0.14207
  0-1A  ->  7-1A    7.657577   61762.5   161.9   -0.00014  -0.00000   0.00016  -0.46004
  0-1A  ->  8-1A    7.846575   63286.9   158.0   -0.00342  -0.03788  -0.32511  -0.00023
  0-1A  ->  9-1A    7.959324   64196.3   155.8    0.00463   0.13690  -0.28994  -0.00005
  0-1A  -> 10-1A    8.052991   64951.8   154.0   -0.00292   0.00002   0.00003   0.05500

Total run time:      148.719 sec

           *** ORCA-CIS/TD-DFT FINISHED WITHOUT ERROR ***
-----------------------
CIS/TD-DFT TOTAL ENERGY
-----------------------

    E(SCF)  =   -342.325001975 Eh
    DE(CIS) =      0.109395384 Eh (Root  1)
    ----------------------------- ---------
    E(tot)  =   -342.215606591 Eh


Maximum memory used throughout the entire CIS-calculation: 32.0 MB
=> NOW LEAVING ORCA_CIS

-------------------------   --------------------
FINAL SINGLE POINT ENERGY      -342.215606591460
-------------------------   --------------------



           ************************************************************
           *        Program running with 8 parallel MPI-processes     *
           *              working on a common directory               *
           ************************************************************

------------------------------------------------------------------------------
                              ORCA PROPERTY CALCULATIONS
------------------------------------------------------------------------------

GBWName                                 ... sp_s1_0_wat.gbw
Number of atoms                         ...     10
Number of basis functions               ...    210
Max core memory                         ...   2000 MB

Electric properties:
Dipole moment                           ... YES
Quadrupole moment                       ...  NO
Static polarizability (Dipole/Dipole)   ...  NO
Static polarizability (Dipole/Quad.)    ...  NO
Static polarizability (Quad./Quad.)     ...  NO
Static polarizability (Velocity)        ...  NO
Static hyperpolarizability              ...  NO

Atomic electric properties:
Dipole moment                           ...  NO
Quadrupole moment                       ...  NO
Static polarizability                   ...  NO

Choice of electric origin               ... Center of mass
Position of electric origin             ...     0.110678    -0.030761     0.000005

General magnetic properties:
Magnetizability                         ...  NO

EPR properties:
g-Tensor (aka g-matrix)                 ...  NO
Zero-Field splitting spin-orbit         ...  NO
Zero-field splitting spin-spin          ...  NO
Hyperfine couplings                     ...  NO (   0 nuclei)
Quadrupole couplings                    ...  NO (   0 nuclei)
Contact density                         ...  NO (   0 nuclei)

NMR properties:
Chemical shifts                         ...  NO (   0 nuclei)
Spin-rotation constants                 ...  NO (   0 nuclei)
Spin-spin couplings                     ...  NO (   0 nuclei,    0 pairs)

Choice of magnetic origin               ... GIAO
Position of magnetic origin             ...     0.000000     0.000000     0.000000

Properties with geometric perturbations:
SCF Hessian                             ...  NO
IR spectrum                             ...  NO
VCD spectrum                            ...  NO
X-ray spectroscopy properties:
SCF XES/XAS/RIXS spectra                ...  NO

SCF SOC stabilization energy            ...  NO
Diagonal Born-Oppenheimer correction    ...  NO

-------------
DIPOLE MOMENT
-------------

Method             : SCF
Type of density    : Electron Density
Multiplicity       :   1
Irrep              :   0
Energy             :  -342.3250019752941853 Eh
Basis              : AO
                                X                 Y                 Z
Electronic contribution:      3.945652820      -1.457285766       0.000026216
Nuclear contribution   :     -5.092995685       1.415110078      -0.000136760
                        -----------------------------------------
Total Dipole Moment    :     -1.147342865      -0.042175689      -0.000110544
                        -----------------------------------------
Magnitude (a.u.)       :      1.148117786
Magnitude (Debye)      :      2.918283493



--------------------
Rotational spectrum 
--------------------
 
Rotational constants in cm-1:             0.180280             0.119815             0.072965 
Rotational constants in MHz :          5404.671568          3591.960885          2187.444038 

Dipole components along the rotational axes: 
x,y,z [a.u.] :    -1.140581     0.131340    -0.000105 
x,y,z [Debye]:    -2.899126     0.333840    -0.000266 

 

Dipole moment calculation done in   0.3 sec 

Maximum memory used throughout the entire PROP-calculation: 8.0 MB

--------------------------------
SUGGESTED CITATIONS FOR THIS RUN
--------------------------------

Below you find a list of papers that are relevant to this ORCA run
We neither can nor want to force you to cite these papers, but we appreciate if you do
You receive ORCA, which is the product of decades of hard work by many enthusiastic individuals, for free
The only thing we kindly ask in return is that you cite our papers,
We deeply appreciate it, if you show your appreciation for ORCA by not just citing the generic ORCA reference.

Please note that relegating all ORCA citations to the supporting information does *not* help us.
SI sections are not indexed - citations you put there will not count into any citation statistics
But we need these citations in order to attract the funding resources that allow us to do what we are doing

Therefore, if you are a happy ORCA user, please consider citing a few of the papers listed below in the main body of your paper

In addition to the list printed below, the program has created the file sp_s1_0_wat.bibtex that contains the list in bibtex format
You can import this file easily into all common literature databanks and citation aid programs


List of essential papers. We consider these as the minimum necessary citations

  1. Neese, F.
     Software update: the ORCA program system, version 6.0
     WIRES Comput. Molec. Sci. 2025 15(1), e70019
     doi.org/10.1002/wcms.7019

List of papers to cite with high priority. The work reported in these papers was absolutely
necessary for this run to complete.
Our perspective: the developers of density functionals and basis sets usually get cited in chemistry papers
Good! But without the algorithms to do something with them, the functionals or basis sets would not do anything.
Hence, in our opinion, the algorithm design and method developments papers are equally worthy of getting cited

  1. Neese, F.; Olbrich, G.
     Efficient use of the resolution of the identity approximation in time-dependent density functional calculations with hybrid density functionals
     Chem. Phys. Lett. 2002 362 , 170-178
     doi.org/10.1016/s0009-2614(02)01053-9
  2. Lehtola, S.; Steigemann, C.; Oliveira, M.; Marques, M.
     Recent developments in Libxc - A comprehensive library of functionals for density functional theory
     Software X 2018 7 , 
     doi.org/10.1016/j.softx.2017.11.002
  3. Neese, F.
     The SHARK Integral Generation and Digestion System
     J. Comp. Chem. 2022 44(3), 381
     doi.org/10.1002/jcc.26942

List of suggested additional citations. These are papers that are important in the 'surrounding' of 
of this run, or papers that preceded the highly important papers. If you like your results we are grateful for a citation.

  1. Neese, F.
     The ORCA program system
     WIRES Comput. Molec. Sci. 2012 2(1), 73-78
     doi.org/10.1002/wcms.81
  2. Neese, F.
     Software update: the ORCA program system, version 4.0
     WIRES Comput. Molec. Sci. 2018 8(1), 1-6
     doi.org/10.1002/wcms.1327
  3. Neese, F.; Wennmohs, F.; Becker, U.; Riplinger, C.
     The ORCA quantum chemistry program package
     J. Chem. Phys. 2020 152(22), 224108
     doi.org/10.1063/5.0004608
  4. Neese, F.
     Software update: The ORCA program system—Version 5.0
     WIRES Comput. Molec. Sci. 2022 12(1), e1606
     doi.org/10.1002/wcms.1606

List of optional additional citations

  1. Neese, F.
     Approximate second-order SCF convergence for spin unrestricted wavefunctions
     Chem. Phys. Lett. 2000 325(1-3), 93-98
     doi.org/10.1016/s0009-2614(00)00662-x

Timings for individual modules:

Sum of individual times          ...      240.865 sec (=   4.014 min)
Startup calculation              ...       17.020 sec (=   0.284 min)   7.1 %
SCF iterations                   ...       61.442 sec (=   1.024 min)  25.5 %
Property integrals               ...        4.624 sec (=   0.077 min)   1.9 %
Property calculations            ...        4.355 sec (=   0.073 min)   1.8 %
CIS module                       ...      153.424 sec (=   2.557 min)  63.7 %
                             ****ORCA TERMINATED NORMALLY****
TOTAL RUN TIME: 0 days 0 hours 4 minutes 5 seconds 92 msec
