
                                 *****************
                                 * O   R   C   A *
                                 *****************

                                            #,                                       
                                            ###                                      
                                            ####                                     
                                            #####                                    
                                            ######                                   
                                           ########,                                 
                                     ,,################,,,,,                         
                               ,,#################################,,                 
                          ,,##########################################,,             
                       ,#########################################, ''#####,          
                    ,#############################################,,   '####,        
                  ,##################################################,,,,####,       
                ,###########''''           ''''###############################       
              ,#####''   ,,,,##########,,,,          '''####'''          '####       
            ,##' ,,,,###########################,,,                        '##       
           ' ,,###''''                  '''############,,,                           
         ,,##''                                '''############,,,,        ,,,,,,###''
      ,#''                                            '''#######################'''  
     '                                                          ''''####''''         
             ,#######,   #######,   ,#######,      ##                                
            ,#'     '#,  ##    ##  ,#'     '#,    #''#        ,####,    ,#,          
            ##       ##  ##   ,#'  ##            #'  '#       #'       ,# #          
            ##       ##  #######   ##           ,######,      #####,      #          
            '#,     ,#'  ##    ##  '#,     ,#' ,#      #,     #,   #      #          
             '#######'   ##     ##  '#######'  #'      '#     '####' #    #          



                #########################################################
                #                        -***-                          #
                #          Department of theory and spectroscopy        #
                #                                                       #
                #                      Frank Neese                      #
                #                                                       #
                #     Directorship, Architecture, Infrastructure        #
                #                    SHARK, DRIVERS                     #
                #        Core code/Algorithms in most modules           #
                #                                                       #
                #        Max Planck Institute fuer Kohlenforschung      #
                #                Kaiser Wilhelm Platz 1                 #
                #                 D-45470 Muelheim/Ruhr                 #
                #                      Germany                          #
                #                                                       #
                #                  All rights reserved                  #
                #                        -***-                          #
                #########################################################


                         Program Version 6.1.0  -  RELEASE   -
                                (GIT: $679e74b$)
                          ($2025-06-10 18:02:51 +0200$)


 With contributions from (in alphabetic order):
[Max-Planck-Institut fuer Kohlenforschung]                               
  Daniel Aravena         : Magnetic Suceptibility                        
  Michael Atanasov       : Ab Initio Ligand Field Theory (pilot matlab implementation)
  Alexander A. Auer      : GIAO ZORA, VPT2 properties, NMR spectrum      
  Ute Becker             : All parallelization in ORCA, NUMFREQ, NUMCALC 
  Giovanni Bistoni       : ED, misc. LED, open-shell LED, HFLD           
  Dmytro Bykov           : pre 5.0 version of the SCF Hessian            
  Marcos Casanova-Páez   : Triplet and SCS-CIS(D). UHF-(DLPNO)-IP/EA/STEOM-CCSD. UHF-CVS-IP/STEOM-CCSD   
  Vijay G. Chilkuri      : MRCI spin determinant printing, contributions to CSF-ICE 
  Pauline Colinet        : FMM embedding                                 
  Dipayan Datta          : RHF DLPNO-CCSD density                        
  Achintya Kumar Dutta   : EOM-CC, STEOM-CC                              
  Nicolas Foglia         : Exact transition moments, OPA infrastructure, MCD improvements    
  Dmitry Ganyushin       : Spin-Orbit,Spin-Spin,Magnetic field MRCI      
  Miquel Garcia-Rates    : C-PCM and meta-GGA Hessian, CCSD/C-PCM, Gaussian charge scheme 
  Tiago L. C. Gouveia    : GS-ROHF, GS-ROCIS                             
  Yang Guo               : DLPNO-NEVPT2, F12-NEVPT2, CIM, IAO-localization        
  Andreas Hansen         : Spin unrestricted coupled pair/coupled cluster methods 
  Ingolf Harden          : AUTO-CI MPn and infrastructure                
  Benjamin Helmich-Paris : MC-RPA, TRAH-(SCF,CASSCF), AVAS, COSX integrals, SCF dyn. polar., MC-PDFT, srDFT 
  Lee Huntington         : MR-EOM, pCC                                   
  Robert Izsak           : Overlap fitted RIJCOSX, COSX-SCS-MP3, EOM     
  Riya Kayal             : Wick's Theorem for AUTO-CI, AUTO-CI UHF-CCSDT 
  Emily Kempfer          : AUTO-CI RHF CISDT and CCSDT, approximate NEVPT4
  Christian Kollmar      : KDIIS, OOCD, Brueckner-CCSD(T), CCSD density, CASPT2, CASPT2-K, improved NEVPT2 
  Axel Koslowski         : Symmetry handling                             
  Simone Kossmann        : meta-GGA functionals, TD-DFT gradient, OOMP2, (MP2 Hessian; deprecated post 5.0) 
  Lucas Lang             : DCDCAS, Hyperfine gauge corrections, ICE-SOC+SSC
  Marvin Lechner         : AUTO-CI (C++ implementation), FIC-MRCC        
  Spencer Leger          : CASSCF response                               
  Dagmar Lenk            : GEPOL surface, SMD, ORCA-2-JSON               
  Dimitrios Liakos       : Extrapolation schemes; Compound Job, Property file
  Dimitrios Manganas     : Further ROCIS development; embedding schemes. LFT, Crystal Embedding 
  Dimitrios Pantazis     : SARC Basis sets                               
  Anastasios Papadopoulos: AUTO-CI, single reference methods and gradients 
  Taras Petrenko         : pre 6.0 DFT Hessian and TD-DFT gradient,  ECA, NRVS 
  Petra Pikulova         : Analytic Raman intensities                    
  Peter Pinski           : DLPNO-MP2, DLPNO-MP2 Gradient                 
  Shashank Vittal Rao    : ES-AILFT, MagRelax                            
  Christoph Reimann      : Effective Core Potentials                     
  Marius Retegan         : Local ZFS, SOC                                
  Christoph Riplinger    : Optimizer, TS searches, QM/MM, DLPNO-CCSD(T), (RO)-DLPNO pert. Triples 
  Michael Roemelt        : Original ROCIS implementation, recursive CI coupling coefficients
  Masaaki Saitow         : Open-shell DLPNO-CCSD energy and density      
  Barbara Sandhoefer     : DKH picture change effects                    
  Yorick L. A. Schmerwitz: GMF and freeze-and-release deltaSCF, NEB S-IDPP initial path                    
  Kantharuban Sivalingam : CASSCF convergence/infrastructure, NEVPT2, NEVPT3, NEVPT4(SD), FIC-MRCI and CEPA variants
  Bernardo de Souza      : ESD, SOC TD-DFT                               
  Georgi L. Stoychev     : AutoAux, RI-MP2 NMR, DLPNO-MP2 response, X2C  
  Van Anh Tran           : RI-MP2 g-tensors                              
  Willem Van den Heuvel  : Paramagnetic NMR                              
  Zikuan Wang            : NOTCH, Electric field optimization            
  Frank Wennmohs         : Technical directorship and infrastructure     
  Hang Xu                : AUTO-CI-Response properties                   
                                                                         
[FACCTs GmbH]                                                            
  Markus Bursch, Nicolas Foglia, Miquel Garcia-Rates, Ingolf Harden, Hagen Neugebauer, Anastasios Papadopoulos, 
  Christoph Riplinger, Bernardo de Souza, Georgi L. Stoychev                                                    
                                                                 
  APM, various basis sets, CI-OPT, improved COSX, DLPNO-Multilevel,           
  DOCKER, DRACO, updates on ESD, Fragmentator, GOAT, IRC, LR-CPCM, L-BFGS, MBIS, meta-GGA TD-DFT gradient, ML-optimized integration grids, 
  MM, NACMEs, nearIR, NEB, NEB-TS, NL-DFT gradient (VV10), 2- and 3-layer-ONIOM, interface openCOSMO-RS, QMMM,   
  Crystal-QMMM, RESP, rigid body optimization, SF, symmetry and pop. for TD-DFT, various functionals, SOLVATOR                                   
                                                                         
[Other institutions]                                                     
  V. Asgeirsson          : NEB                                           
  Christoph Bannwarth    : sTDA-DFT, sTD-DFT, PBEh-3c, B97-3c, D3        
  Giovanni Bistoni       : ETS/NOCV, ADLD/ADEX, COVALED                  
  Martin Brehm           : Molecular dynamics                            
  Ronald Cardenas        : ETS/NOCV                                      
  Martina Colucci        : COVALED                                       
  Sebastian Ehlert       : rSCAN, r2SCAN, r2SCAN-3c, D4, dhf basis sets  
  Marvin Friede          : D4 for Fr, Ra, Ac-Lr                          
  Lars Goerigk           : TD-DFT with DH, B97 family of functionals     
  Stefan Grimme          : VdW corrections, initial TS optimization, DFT functionals, gCP, sTDA/sTD-DF 
  Waldemar Hujo          : DFT-NL                                        
  H. Jonsson             : NEB                                           
  Holger Kruse           : gCP                                           
  Marcel Mueller         : wB97X-3c, vDZP basis set                      
  Hagen Neugebauer       : wr2SCAN, Native XTB                           
  Gianluca Regni         : ADLD/ADEX                                     
  Tobias Risthaus        : pre 6.0 range-separated hybrid DFT and stability analysis
  Lukas Wittmann         : regularized MP2, r2SCAN double-hybrids, wr2SCAN        
                                                                         
We gratefully acknowledge several colleagues who have allowed us to      
interface, adapt or use parts of their codes:                            
  Ed Valeev, F. Pavosevic, A. Kumar             : LibInt (2-el integral package), F12 methods 
  Garnet Chan, S. Sharma, J. Yang, R. Olivares  : DMRG                   
  Ulf Ekstrom                                   : XCFun DFT Library      
  Mihaly Kallay                                 : mrcc  (arbitrary order and MRCC methods)
  Frank Weinhold                                : gennbo (NPA and NBO analysis)           
  Simon Mueller                                 : openCOSMO-RS                            
  Christopher J. Cramer and Donald G. Truhlar   : smd solvation model                     
  S Lehtola, MJT Oliveira, MAL Marques          : LibXC Library                           
  Liviu Ungur et al                             : ANISO software                          


 Your calculation uses the libint2 library for the computation of 2-el integrals
 For citations please refer to: http://libint.valeyev.net

 Your ORCA version has been built with support for libXC version: 7.0.0
 For citations please refer to: https://libxc.gitlab.io

 This ORCA versions uses:
   CBLAS   interface :  Fast vector & matrix operations
   LAPACKE interface :  Fast linear algebra routines
   SCALAPACK package :  Parallel linear algebra routines
   Shared memory     :  Shared parallel matrices
   BLAS/LAPACK       :  OpenBLAS 0.3.29  USE64BITINT DYNAMIC_ARCH NO_AFFINITY SkylakeX SINGLE_THREADED
        Core in use  :  SkylakeX
   Copyright (c) 2011-2014, The OpenBLAS Project


  ***********************************
  * Starting time: Wed Jan 28 11:55:46 2026
  * Host name:     bp1-compute182.data.bp.acrc.priv
  * Process ID:    149022
  * Working dir.:  /user/work/kp22738/Diss/Orca/pyruvic_anion/dyson_orbitals/1_wat/15365121_d0_freq_1_wat
  ***********************************

NOTE: MaxCore=8000 MB was set to SCF,MP2,MDCI,CIPSI,MRCI,RASCI and CIS
      => If you want to overwrite this, your respective input block should be placed after the MaxCore statement
Using LibXC functional ID 471 : wB97X-D range-separated functional
[ 1]  J.-D. Chai and M. Head-Gordon.,  Phys. Chem. Chem. Phys. 10, 6615-6620 (2008)
Using LibXC functional ID 471 : wB97X-D range-separated functional
[ 1]  J.-D. Chai and M. Head-Gordon.,  Phys. Chem. Chem. Phys. 10, 6615-6620 (2008)
Your calculation utilizes LibXC
by S. Lehtola, C. Steigemann, M. J. T. Oliveira & M. A. L. Marques
Please cite in your paper:
Lehtola, S.; Steigemann, C.; Oliveira, M.J.T.; Marques, M. A. L. Software X, 7, (2018), 1.
   

================================================================================

----- Orbital basis set information -----
Your calculation utilizes the basis: aug-cc-pVDZ 
    H, B-Ne : Obtained from the ccRepo (grant-hill.group.shef.ac.uk/ccrepo) Feb. 2017
              R. A. Kendall, T. H. Dunning, Jr., R. J. Harrison, J. Chem. Phys. 96, 6796 (1992)
         He : Obtained from the ccRepo (grant-hill.group.shef.ac.uk/ccrepo) Feb. 2017
              D. E. Woon, T. H. Dunning, Jr., J. Chem. Phys. 100, 2975 (1994)
  Li-Be, Na : Obtained from the ccRepo (grant-hill.group.shef.ac.uk/ccrepo) Feb. 2017
              B. P. Prascher, D. E. Woon, K. A. Peterson, T. H. Dunning, Jr., A. K. Wilson, Theor. Chem. Acc. 128, 69 (2011)
         Mg : Obtained from the Peterson Research Group Website (tyr0.chem.wsu.edu/~kipeters) Feb. 2017
              B. P. Prascher, D. E. Woon, K. A. Peterson, T. H. Dunning, Jr., A. K. Wilson, Theor. Chem. Acc. 128, 69 (2011)
      Al-Ar : Obtained from the ccRepo (grant-hill.group.shef.ac.uk/ccrepo) Feb. 2017
              D. E. Woon, T. H. Dunning, Jr., J. Chem. Phys. 98, 1358 (1993)
      Sc-Zn : Obtained from the ccRepo (grant-hill.group.shef.ac.uk/ccrepo) Feb. 2017
              N. B. Balabanov, K. A. Peterson, J. Chem. Phys. 123, 064107 (2005)
              N. B. Balabanov, K. A. Peterson, J. Chem. Phys. 125, 074110 (2006)
      Ga-Kr : Obtained from the ccRepo (grant-hill.group.shef.ac.uk/ccrepo) Feb. 2017
              A. K. Wilson, D. E. Woon, K. A. Peterson, T. H. Dunning, Jr., J. Chem. Phys. 110, 7667 (1999)

================================================================================
                                        WARNINGS
                       Please study these warnings very carefully!
================================================================================


WARNING: your system is open-shell and RHF/RKS was chosen
  ===> : WILL SWITCH to UHF/UKS


================================================================================
                                       INPUT FILE
================================================================================
NAME = d0_freq_1_wat.inp
|  1> ! aug-cc-pVDZ TightSCF DEFGRID3 Engrad ANFREQ
|  2> 
|  3> %PAL NPROCS 8 END
|  4> 
|  5> %maxcore 8000
|  6> 
|  7> %method
|  8> method dft
|  9> functional hyb_gga_xc_wb97x_d
| 10> end
| 11> 
| 12> * xyz -1 2
| 13>   C     -0.652599   -0.222620    0.000026
| 14>   C      0.704994    0.248880    0.000429
| 15>   C     -1.793407    0.759899   -0.000192
| 16>   H     -2.431432    0.606736    0.886085
| 17>   H     -2.431051    0.606780   -0.886751
| 18>   H     -1.418596    1.790709   -0.000080
| 19>   O     -0.862076   -1.491330    0.000100
| 20>   O      1.118778    1.427594    0.000705
| 21>   O      1.607966   -0.785033    0.000435
| 22>   H      1.006664   -1.561270   -0.000079
| 23>   O      3.879411    1.363126    0.003274
| 24>   H      3.889754    0.401977    0.002990
| 25>   H      2.909794    1.528853    0.002189
| 26> * 
| 27> 
| 28>                          ****END OF INPUT****
================================================================================

                     *******************************
                     * Energy+Gradient Calculation *
                     *******************************

---------------------------------
CARTESIAN COORDINATES (ANGSTROEM)
---------------------------------
  C     -0.652599   -0.222620    0.000026
  C      0.704994    0.248880    0.000429
  C     -1.793407    0.759899   -0.000192
  H     -2.431432    0.606736    0.886085
  H     -2.431051    0.606780   -0.886751
  H     -1.418596    1.790709   -0.000080
  O     -0.862076   -1.491330    0.000100
  O      1.118778    1.427594    0.000705
  O      1.607966   -0.785033    0.000435
  H      1.006664   -1.561270   -0.000079
  O      3.879411    1.363126    0.003274
  H      3.889754    0.401977    0.002990
  H      2.909794    1.528853    0.002189

----------------------------
CARTESIAN COORDINATES (A.U.)
----------------------------
  NO LB      ZA    FRAG     MASS         X           Y           Z
   0 C     6.0000    0    12.011   -1.233233   -0.420691    0.000049
   1 C     6.0000    0    12.011    1.332246    0.470315    0.000811
   2 C     6.0000    0    12.011   -3.389048    1.436001   -0.000363
   3 H     1.0000    0     1.008   -4.594741    1.146565    1.674458
   4 H     1.0000    0     1.008   -4.594021    1.146648   -1.675717
   5 H     1.0000    0     1.008   -2.680758    3.383950   -0.000151
   6 O     8.0000    0    15.999   -1.629088   -2.818205    0.000189
   7 O     8.0000    0    15.999    2.114184    2.697762    0.001332
   8 O     8.0000    0    15.999    3.038615   -1.483497    0.000822
   9 H     1.0000    0     1.008    1.902319   -2.950373   -0.000149
  10 O     8.0000    0    15.999    7.331024    2.575935    0.006187
  11 H     1.0000    0     1.008    7.350570    0.759626    0.005650
  12 H     1.0000    0     1.008    5.498714    2.889113    0.004137

--------------------------------
INTERNAL COORDINATES (ANGSTROEM)
--------------------------------
 C      0   0   0     0.000000000000     0.00000000     0.00000000
 C      1   0   0     1.437139925706     0.00000000     0.00000000
 C      1   2   0     1.505585110762   120.11096602     0.00000000
 H      3   1   2     1.102733751149   110.34349995   239.02059565
 H      3   1   2     1.102733947685   110.34331439   120.98865468
 H      3   1   2     1.096837524142   110.75493724     0.00000000
 O      1   2   3     1.285887119115   118.52794467   180.01221405
 O      2   1   3     1.249233352352   128.49588552     0.00000000
 O      2   1   3     1.372710648458   111.98005149   180.00648738
 H      9   2   1     0.981890136201   101.10483963     0.00000000
 O      8   2   1     2.761386840606   108.00571093   179.95852645
 H     11   8   2     0.961204691263    91.95428705     0.00000000
 H     11   8   2     0.983678678453     8.36151099   179.93208421

---------------------------
INTERNAL COORDINATES (A.U.)
---------------------------
 C      0   0   0     0.000000000000     0.00000000     0.00000000
 C      1   0   0     2.715800875708     0.00000000     0.00000000
 C      1   2   0     2.845143530650   120.11096602     0.00000000
 H      3   1   2     2.083864788303   110.34349995   239.02059565
 H      3   1   2     2.083865159703   110.34331439   120.98865468
 H      3   1   2     2.072722534036   110.75493724     0.00000000
 O      1   2   3     2.429974494264   118.52794467   180.01221405
 O      2   1   3     2.360708913305   128.49588552     0.00000000
 O      2   1   3     2.594047186702   111.98005149   180.00648738
 H      9   2   1     1.855503451019   101.10483963     0.00000000
 O      8   2   1     5.218264878560   108.00571093   179.95852645
 H     11   8   2     1.816413625127    91.95428705     0.00000000
 H     11   8   2     1.858883306054     8.36151099   179.93208421

---------------------
BASIS SET INFORMATION
---------------------
There are 3 groups of distinct atoms

 Group   1 Type C   : 18s5p2d contracted to 4s3p2d pattern {8811/311/11}
 Group   2 Type H   : 5s2p contracted to 3s2p pattern {311/11}
 Group   3 Type O   : 18s5p2d contracted to 4s3p2d pattern {8811/311/11}

Atom   0C    basis set group =>   1
Atom   1C    basis set group =>   1
Atom   2C    basis set group =>   1
Atom   3H    basis set group =>   2
Atom   4H    basis set group =>   2
Atom   5H    basis set group =>   2
Atom   6O    basis set group =>   3
Atom   7O    basis set group =>   3
Atom   8O    basis set group =>   3
Atom   9H    basis set group =>   2
Atom  10O    basis set group =>   3
Atom  11H    basis set group =>   2
Atom  12H    basis set group =>   2


           ************************************************************
           *        Program running with 8 parallel MPI-processes     *
           *              working on a common directory               *
           ************************************************************
------------------------------------------------------------------------------
                             ORCA STARTUP CALCULATIONS
------------------------------------------------------------------------------
------------------------------------------------------------------------------
                   ___                                                        
                  /   \      - P O W E R E D   B Y -                         
                 /     \                                                     
                 |  |  |   _    _      __       _____    __    __             
                 |  |  |  | |  | |    /  \     |  _  \  |  |  /  |          
                  \  \/   | |  | |   /    \    | | | |  |  | /  /          
                 / \  \   | |__| |  /  /\  \   | |_| |  |  |/  /          
                |  |  |   |  __  | /  /__\  \  |    /   |      \           
                |  |  |   | |  | | |   __   |  |    \   |  |\   \          
                \     /   | |  | | |  |  |  |  | |\  \  |  | \   \       
                 \___/    |_|  |_| |__|  |__|  |_| \__\ |__|  \__/        
                                                                              
                      - O R C A' S   B I G   F R I E N D -                    
                                      &                                       
                       - I N T E G R A L  F E E D E R -                       
                                                                              
 v1 FN, 2020, v2 2021, v3 2022-2024                                           
------------------------------------------------------------------------------


----------------------
SHARK INTEGRAL PACKAGE
----------------------

Number of atoms                             ...     13
Number of basis functions                   ...    257
Number of shells                            ...    135
Maximum angular momentum                    ...      2
Integral batch strategy                     ... SHARK/LIBINT Hybrid
RI-J (if used) integral strategy            ... SPLIT-RIJ (Revised 2003 algorithm where possible)
Printlevel                                  ...      1
Contraction scheme used                     ... PARTIAL GENERAL contraction
Prescreening option                         ... SCHWARTZ
   Thresh                                   ... 2.500e-11
   Tcut                                     ... 2.500e-12
   Tpresel                                  ... 2.500e-12 
Coulomb Range Separation                    ... NOT USED
Exchange Range Separation                   ... Long Range
   Mu parameter                             ... 2.000e-01
   Scaling (regular/separated)              ... 2.220e-01 7.780e-01
Robust (split-)RI terms used:
  metric    (central integrals)             ... YES
  density   (r.h.s.  integrals)             ... YES
  potential (l.h.s.  integrals)             ... YES
Multipole approximations                    ... NOT USED
Finite Nucleus Model                        ... NOT USED
CABS basis                                  ... NOT available
Auxiliary Coulomb fitting basis             ... NOT available
Auxiliary J/K fitting basis                 ... NOT available
Auxiliary Correlation fitting basis         ... NOT available
Auxiliary 'external' fitting basis          ... NOT available

Checking pre-screening integrals            ... done (  0.0 sec) Dimension = 135
Save PGC pre-screening integrals            ... done (  0.0 sec) Dimension = 135
Calculate PGC overlap integrals             ... done (  0.0 sec) Dimension = 93
Calculating pre-screening integrals (ORCA)  ... done (  0.1 sec) Dimension = 93
Shell pair information
Shell pair cut-off parameter TPreSel        ...   2.5e-12
Total number of shell pairs                 ...      9180
Shell pairs after pre-screening             ...      7532
Total number of primitive shell pairs       ...     13080
Primitive shell pairs kept                  ...      9874
          la=0 lb=0:   2711 shell pairs
          la=1 lb=0:   2626 shell pairs
          la=1 lb=1:    548 shell pairs
          la=2 lb=0:   1094 shell pairs
          la=2 lb=1:    450 shell pairs
          la=2 lb=2:    103 shell pairs

Checking whether 4 symmetric matrices of dimension 257 fit in memory
:Max Core in MB      =   8000.00
 MB in use           =      9.47
 MB left             =   7990.53
 MB needed           =      1.01
 Data fit in memory  = YES
Calculating Nuclear repulsion               ... done (  0.0 sec) ENN=    301.781966361163 Eh

Diagonalization of the overlap matrix:
Smallest eigenvalue                        ... 1.943e-05
Time for diagonalization                   ...    0.006 sec
Threshold for overlap eigenvalues          ... 1.000e-07
Number of eigenvalues below threshold      ... 0
Time for construction of square roots      ...    0.003 sec
Total time needed                          ...    0.010 sec

-------------------
DFT GRID GENERATION
-------------------

General Integration Accuracy     IntAcc      ... 4.959
Radial Grid Type                 RadialGrid  ... OptM3 with GC (2021)
Angular Grid (max. ang.)         AngularGrid ... 6 (Lebedev-590)
Angular grid pruning method      GridPruning ... 4 (adaptive)
Weight generation scheme         WeightScheme... mBecke (2022)
Basis function cutoff            BFCut       ... 1.0000e-11
Integration weight cutoff        WCut        ... 1.0000e-14
Partially contracted basis set               ... off
Rotationally invariant grid construction     ... off
Angular grids for H and He will be reduced by one unit
Diffuse basis detected: some atoms will have their outermost
                        angular grid increased by 1.

Total number of grid points                  ...   162629
Total number of batches                      ...     2548
Average number of points per batch           ...       63
Average number of grid points per atom       ...    12510

---------------------
SHARK GRID GENERATION
---------------------

General Integration Accuracy     IntAcc      ... 4.959
Radial Grid Type                 RadialGrid  ... OptM3 with GC (2021)
Angular Grid (max. ang.)         AngularGrid ... 6 (Lebedev-590)
Angular grid pruning method      GridPruning ... 4 (adaptive)
Weight generation scheme         WeightScheme... mBecke (2022)
Basis function cutoff            BFCut       ... 1.0000e-11
Integration weight cutoff        WCut        ... 1.0000e-14
Partially contracted basis set               ... off
Rotationally invariant grid construction     ... off
Angular grids for H and He will be reduced by one unit
Diffuse basis detected: some atoms will have their outermost
                        angular grid increased by 1.
Steep s-basis detected: some atoms will have their radial
                        grid points doubled.

Total number of grid points                  ...   266736
Total number of batches                      ...     4176
Average number of points per batch           ...       63
Average number of grid points per atom       ...    20518
Grids setup in   7.7 sec
Initializing property integral containers    ... done (  0.0 sec)

SHARK setup successfully completed in   8.0 seconds

Maximum memory used throughout the entire STARTUP-calculation: 61.0 MB


           ************************************************************
           *        Program running with 8 parallel MPI-processes     *
           *              working on a common directory               *
           ************************************************************
-------------------------------------------------------------------------------
                                 ORCA GUESS
                   Start orbitals & Density for SCF / CASSCF
-------------------------------------------------------------------------------

------------
SCF SETTINGS
------------
Hamiltonian:
 Density Functional     Method          .... DFT(GTOs)
  Functional kind                       .... Exchange-Correlation
  Functional name                       .... wB97X-D range-separated functional
  Functional family                     .... Hybrid GGA
  Functional refs                              
    [ 0] J.-D. Chai and M. Head-Gordon.,  Phys. Chem. Chem. Phys. 10, 6615-6620 (2008), doi: 10.1039/B810189B
  Fraction of HF Exchange (short range) .... 0.2220
  Fraction of HF Exchange ( int64 range )  .... 1.0000
  Range separation parameter mu         .... 0.2000
  Functional external parameters        .... 18
    Parameter  0 _cx0       =  7.779640e-01 : u^0 coefficient for exchange
    Parameter  1 _cx1       =  6.611600e-01 : u^1 coefficient for exchange
    Parameter  2 _cx2       =  5.745410e-01 : u^2 coefficient for exchange
    Parameter  3 _cx3       = -5.256710e+00 : u^3 coefficient for exchange
    Parameter  4 _cx4       =  1.163860e+01 : u^4 coefficient for exchange
    Parameter  5 _css0      =  1.000000e+00 : u^0 coefficient for same-spin correlation
    Parameter  6 _css1      = -6.905390e+00 : u^1 coefficient for same-spin correlation
    Parameter  7 _css2      =  3.133430e+01 : u^2 coefficient for same-spin correlation
    Parameter  8 _css3      = -5.105330e+01 : u^3 coefficient for same-spin correlation
    Parameter  9 _css4      =  2.644230e+01 : u^4 coefficient for same-spin correlation
    Parameter 10 _cos0      =  1.000000e+00 : u^0 coefficient for opposite-spin correlation
    Parameter 11 _cos1      =  1.794130e+00 : u^1 coefficient for opposite-spin correlation
    Parameter 12 _cos2      = -1.204770e+01 : u^2 coefficient for opposite-spin correlation
    Parameter 13 _cos3      =  1.408470e+01 : u^3 coefficient for opposite-spin correlation
    Parameter 14 _cos4      = -8.508090e+00 : u^4 coefficient for opposite-spin correlation
    Parameter 15 _alpha     =  1.000000e+00 : fraction of HF exchange
    Parameter 16 _beta      = -7.779640e-01 : fraction of short-range exchange
    Parameter 17 _omega     =  2.000000e-01 : range-separation constant
 Long-range corrected/Screened/Range-Separated Hybrid DFT is turned on
   Amount of maximum screened exact exchange              ....  0.777964
   Range separation parameter mu (erf(mu*r12)/r12)        ....  0.200000


General Settings:
 Integral files         IntName         .... d0_freq_1_wat
 Hartree-Fock type      HFTyp           .... UHF
 Total Charge           Charge          ....   -1
 Multiplicity           Mult            ....    2
 Number of Electrons    NEL             ....   57
 Basis Dimension        Dim             ....  215
 Nuclear Repulsion      ENuc            ....    301.7819663612 Eh

Convergence Acceleration:
 AO-DIIS                CNVDIIS         .... on
   Start iteration      DIISMaxIt       ....    12
   Startup error        DIISStart       ....  0.200000
   # of expansion vecs  DIISMaxEq       ....     5
   Bias factor          DIISBfac        ....   1.050
   Max. coefficient     DIISMaxC        ....  10.000
 MO-DIIS                CNVKDIIS        .... off
 Trust-Rad. Augm. Hess. CNVTRAH         .... auto
   Auto Start mean grad. ratio tolernc. ....  1.125000
   Auto Start start iteration           ....    50
   Auto Start num. interpolation iter.  ....    10
   Max. Number of Micro iterations      ....    24
   Max. Number of Macro iterations      .... Maxiter - #DIIS iter
   Number of Davidson start vectors     ....     2
   Converg. threshold    (grad. norm)   ....   1.000e-05
   Grad. Scal. Fac. for Micro threshold ....   0.100
   Minimum threshold for Micro iter.    ....   1.000e-02
   NR start threshold (gradient norm)   ....   1.000e-04
   Initial trust radius                 ....   0.400
   Minimum AH scaling param. (alpha)    ....   1.000
   Maximum AH scaling param. (alpha)    .... 1000.000
   Quad. conv. algorithm                .... NR
   White noise on init. David. guess    .... on
   Maximum white noise                  ....   0.010
   Pseudo random numbers                .... off
   Inactive MOs                         .... canonical
   Orbital update algorithm             .... Taylor
   Preconditioner                       .... Diag
   Full preconditioner red. dimension   ....   250
 SOSCF                 CNVSOSCF           .... on
   Start iteration     SOSCFMaxIt         ....   150
   Startup grad/error  SOSCFStart         ....  0.003300
   Hessian update      SOSCFHessUp        .... L-BFGS
   Autom. constraints  SOSCFAutoConstrain .... off
 Level Shifting         CNVShift        .... on
   Level shift para.    LevelShift      ....    0.2500
   Turn off err/grad.   ShiftErr        ....    0.0010
 Zerner damping         CNVZerner       .... off
 Static damping         CNVDamp         .... on
   Fraction old density DampFac         ....    0.7000
   Max. Damping (<1)    DampMax         ....    0.9800
   Min. Damping (>=0)   DampMin         ....    0.0000
   Turn off err/grad.   DampErr         ....    0.1000

SCF Procedure:
 Maximum # iterations   MaxIter         ....   125
 SCF integral mode      SCFMode         .... Direct
   Integral package                     .... SHARK and LIBINT hybrid scheme
 Reset frequency        DirectResetFreq ....    20
 Integral Threshold     Thresh          ....  2.500e-11 Eh
 Primitive CutOff       TCut            ....  2.500e-12 Eh

Convergence Tolerance:
 Convergence Check Mode ConvCheckMode   .... Total+1el-Energy
 Convergence forced     ConvForced      .... 0
 Energy Change          TolE            ....  1.000e-08 Eh
 1-El. energy change                    ....  1.000e-05 Eh
 Orbital Gradient       TolG            ....  1.000e-05
 Orbital Rotation angle TolX            ....  1.000e-05
 DIIS Error             TolErr          ....  5.000e-07

------------------------------
INITIAL GUESS: MODEL POTENTIAL
------------------------------
Loading Hartree-Fock densities                     ... done
Calculating cut-offs                               ... done
Initializing the effective Hamiltonian             ... done
Setting up the integral package (SHARK)            ... done
Starting the Coulomb interaction                   ... done (   0.1 sec)
Making the grid                                    ... done (   0.2 sec)
Mapping shells                                     ... done
Starting the XC term evaluation                    ... done (   0.1 sec)
  promolecular density results
     # of electrons  =     55.996550597
     EX+EC           =    -36.067582889
Transforming the Hamiltonian                       ... done (   0.0 sec)
Diagonalizing the Hamiltonian                      ... done (   0.0 sec)
Back transforming the eigenvectors                 ... done (   0.0 sec)
Now organizing SCF variables                       ... done
                      ------------------
                      INITIAL GUESS DONE (   0.4 sec)
                      ------------------
             **** ENERGY FILE WAS UPDATED (d0_freq_1_wat.en.tmp) ****
Finished Guess after   1.0 sec
Maximum memory used throughout the entire GUESS-calculation: 12.7 MB


           ************************************************************
           *        Program running with 8 parallel MPI-processes     *
           *              working on a common directory               *
           ************************************************************

-------------------------------------------------------------------------------------------
                                      ORCA LEAN-SCF
                              memory conserving SCF solver
-------------------------------------------------------------------------------------------

----------------------------------------D-I-I-S--------------------------------------------
Iteration    Energy (Eh)           Delta-E    RMSDP     MaxDP     DIISErr   Damp  Time(sec)
-------------------------------------------------------------------------------------------
               ***  Starting incremental Fock matrix formation  ***
    1    -418.7774550695727385     0.00e+00  3.25e-03  5.59e-02  4.40e-02  0.700   6.1
    2    -418.7938122959595830    -1.64e-02  2.52e-03  4.43e-02  3.04e-02  0.700   5.7
                               ***Turning on AO-DIIS***
    3    -418.8028454954838935    -9.03e-03  1.62e-03  2.28e-02  2.09e-02  0.700   5.6
    4    -418.8086548945013874    -5.81e-03  3.88e-03  4.88e-02  1.47e-02  0.000   5.7
                              *** Initializing SOSCF ***
---------------------------------------S-O-S-C-F--------------------------------------
Iteration    Energy (Eh)           Delta-E    RMSDP     MaxDP     MaxGrad    Time(sec)
--------------------------------------------------------------------------------------
    5    -418.8225241266225112    -1.39e-02  4.80e-04  7.28e-03  2.34e-03     5.7
               *** Restarting incremental Fock matrix formation ***
    6    -418.8226928651982917    -1.69e-04  5.72e-04  1.06e-02  1.88e-03     6.0
    7    -418.8227532346816133    -6.04e-05  6.04e-04  1.02e-02  1.16e-03     5.2
    8    -418.8227719882320343    -1.88e-05  6.80e-05  8.79e-04  5.12e-04     5.3
    9    -418.8227768408603424    -4.85e-06  7.18e-05  1.13e-03  1.58e-04     4.9
   10    -418.8227776480833882    -8.07e-07  2.20e-05  3.63e-04  6.64e-05     4.8
   11    -418.8227778360945877    -1.88e-07  2.01e-05  4.74e-04  4.77e-05     4.5
   12    -418.8227778729113879    -3.68e-08  1.40e-05  3.01e-04  1.39e-05     4.4
   13    -418.8227778829665340    -1.01e-08  7.30e-06  1.25e-04  8.66e-06     4.3
   14    -418.8227778838407858    -8.74e-10  9.91e-06  2.70e-04  1.88e-06     4.2
                 **** Energy Check signals convergence ****

               *****************************************************
               *                     SUCCESS                       *
               *           SCF CONVERGED AFTER  14 CYCLES          *
               *****************************************************

             **** ENERGY FILE WAS UPDATED (d0_freq_1_wat.en.tmp) ****

----------------
TOTAL SCF ENERGY
----------------

Total Energy       :       -418.82277788415286 Eh          -11396.74719 eV

Components:
Nuclear Repulsion  :        301.78196636116252 Eh            8211.90479 eV
Electronic Energy  :       -720.60474424531537 Eh          -19608.65198 eV
One Electron Energy:      -1182.42377512155554 Eh          -32175.38669 eV
Two Electron Energy:        461.81903087624016 Eh           12566.73471 eV

Virial components:
Potential Energy   :       -835.17313524574843 Eh          -22726.21639 eV
Kinetic Energy     :        416.35035736159557 Eh           11329.46920 eV
Virial Ratio       :          2.00593831728217

DFT components:
N(Alpha)           :       29.000024993135 electrons
N(Beta)            :       28.000071293267 electrons
N(Total)           :       57.000096286402 electrons
E(XC)              :      -36.866838722314 Eh       

---------------
SCF CONVERGENCE
---------------

  Last Energy change         ...    8.7425e-10  Tolerance :   1.0000e-08
  Last MAX-Density change    ...    2.7018e-04  Tolerance :   1.0000e-07
  Last RMS-Density change    ...    9.9062e-06  Tolerance :   5.0000e-09
  Last DIIS Error            ...    2.3433e-03  Tolerance :   5.0000e-07
  Last Orbital Gradient      ...    1.8821e-06  Tolerance :   1.0000e-05
  Last Orbital Rotation      ...    3.6274e-06  Tolerance :   1.0000e-05


----------------------
UHF SPIN CONTAMINATION
----------------------

Warning: in a DFT calculation there is little theoretical justification to 
         calculate <S**2> as in Hartree-Fock theory. We will do it anyways
         but you should keep in mind that the values have only limited relevance

Expectation value of <S**2>     :     0.755177
Ideal value S*(S+1) for S=0.5   :     0.750000
Deviation                       :     0.005177

----------------
ORBITAL ENERGIES
----------------
                 SPIN UP ORBITALS
  NO   OCC          E(Eh)            E(eV) 
   0   1.0000     -19.133057      -520.6369 
   1   1.0000     -19.098138      -519.6867 
   2   1.0000     -19.079651      -519.1837 
   3   1.0000     -19.070821      -518.9434 
   4   1.0000     -10.235503      -278.5222 
   5   1.0000     -10.180034      -277.0128 
   6   1.0000     -10.148199      -276.1465 
   7   1.0000      -1.025325       -27.9005 
   8   1.0000      -0.944795       -25.7092 
   9   1.0000      -0.935034       -25.4436 
  10   1.0000      -0.927259       -25.2320 
  11   1.0000      -0.689090       -18.7511 
  12   1.0000      -0.590534       -16.0692 
  13   1.0000      -0.498912       -13.5761 
  14   1.0000      -0.440355       -11.9827 
  15   1.0000      -0.419207       -11.4072 
  16   1.0000      -0.386696       -10.5225 
  17   1.0000      -0.380213       -10.3461 
  18   1.0000      -0.353932        -9.6310 
  19   1.0000      -0.342999        -9.3335 
  20   1.0000      -0.318545        -8.6680 
  21   1.0000      -0.316044        -8.6000 
  22   1.0000      -0.293959        -7.9990 
  23   1.0000      -0.267725        -7.2852 
  24   1.0000      -0.242227        -6.5913 
  25   1.0000      -0.231821        -6.3082 
  26   1.0000      -0.219329        -5.9682 
  27   1.0000      -0.165484        -4.5030 
  28   1.0000      -0.064572        -1.7571 
  29   0.0000       0.135190         3.6787 
  30   0.0000       0.152268         4.1434 
  31   0.0000       0.153384         4.1738 
  32   0.0000       0.158893         4.3237 
  33   0.0000       0.176464         4.8018 
  34   0.0000       0.183806         5.0016 
  35   0.0000       0.216995         5.9047 
  36   0.0000       0.228781         6.2255 
  37   0.0000       0.241559         6.5732 
  38   0.0000       0.255296         6.9470 
  39   0.0000       0.264234         7.1902 

                 SPIN DOWN ORBITALS
  NO   OCC          E(Eh)            E(eV) 
   0   1.0000     -19.132281      -520.6158 
   1   1.0000     -19.098141      -519.6868 
   2   1.0000     -19.075151      -519.0612 
   3   1.0000     -19.063556      -518.7457 
   4   1.0000     -10.233657      -278.4720 
   5   1.0000     -10.175732      -276.8957 
   6   1.0000     -10.148646      -276.1587 
   7   1.0000      -1.020369       -27.7656 
   8   1.0000      -0.940643       -25.5962 
   9   1.0000      -0.928656       -25.2700 
  10   1.0000      -0.913687       -24.8627 
  11   1.0000      -0.681385       -18.5414 
  12   1.0000      -0.575068       -15.6484 
  13   1.0000      -0.495826       -13.4921 
  14   1.0000      -0.439698       -11.9648 
  15   1.0000      -0.412626       -11.2281 
  16   1.0000      -0.373597       -10.1661 
  17   1.0000      -0.367581       -10.0024 
  18   1.0000      -0.351350        -9.5607 
  19   1.0000      -0.333616        -9.0781 
  20   1.0000      -0.317132        -8.6296 
  21   1.0000      -0.310358        -8.4453 
  22   1.0000      -0.289986        -7.8909 
  23   1.0000      -0.233073        -6.3422 
  24   1.0000      -0.225986        -6.1494 
  25   1.0000      -0.216392        -5.8883 
  26   1.0000      -0.213081        -5.7982 
  27   1.0000      -0.157378        -4.2825 
  28   0.0000       0.143806         3.9132 
  29   0.0000       0.152579         4.1519 
  30   0.0000       0.162207         4.4139 
  31   0.0000       0.162962         4.4344 
  32   0.0000       0.177048         4.8177 
  33   0.0000       0.180733         4.9180 
  34   0.0000       0.185249         5.0409 
  35   0.0000       0.219502         5.9729 
  36   0.0000       0.231380         6.2962 
  37   0.0000       0.243976         6.6389 
  38   0.0000       0.259161         7.0521 
*Only the first 10 virtual orbitals were printed.

                    ********************************
                    * MULLIKEN POPULATION ANALYSIS *
                    ********************************

--------------------------------------------
MULLIKEN ATOMIC CHARGES AND SPIN POPULATIONS
--------------------------------------------
   0 C :   -0.014971    0.375791
   1 C :    0.935812    0.148125
   2 C :    0.627260   -0.054667
   3 H :   -0.104511    0.018037
   4 H :   -0.104517    0.018025
   5 H :   -0.281644    0.000244
   6 O :   -0.878598    0.291119
   7 O :   -0.739874    0.178998
   8 O :   -0.578225    0.027714
   9 H :    0.173052   -0.000907
  10 O :   -0.364640    0.000185
  11 H :    0.112335   -0.000371
  12 H :    0.218520   -0.002294
Sum of atomic charges         :   -1.0000000
Sum of atomic spin populations:    1.0000000

-----------------------------------------------------
MULLIKEN REDUCED ORBITAL CHARGES AND SPIN POPULATIONS
-----------------------------------------------------
CHARGE
  0 C s       :     3.132172  s :     3.132172
      pz      :     0.954878  p :     2.501649
      px      :     0.777521
      py      :     0.769250
      dz2     :     0.015338  d :     0.381150
      dxz     :     0.075347
      dyz     :     0.041454
      dx2y2   :     0.160198
      dxy     :     0.088812

  1 C s       :     3.033206  s :     3.033206
      pz      :     0.812358  p :     1.850372
      px      :     0.454931
      py      :     0.583083
      dz2     :     0.002516  d :     0.180610
      dxz     :     0.036349
      dyz     :     0.056424
      dx2y2   :     0.083139
      dxy     :     0.002182

  2 C s       :     2.971562  s :     2.971562
      pz      :     0.787479  p :     2.429532
      px      :     1.018970
      py      :     0.623083
      dz2     :    -0.009657  d :    -0.028353
      dxz     :    -0.009123
      dyz     :     0.005674
      dx2y2   :     0.010201
      dxy     :    -0.025448

  3 H s       :     1.109504  s :     1.109504
      pz      :     0.004169  p :    -0.004994
      px      :    -0.008809
      py      :    -0.000353

  4 H s       :     1.109514  s :     1.109514
      pz      :     0.004177  p :    -0.004997
      px      :    -0.008824
      py      :    -0.000349

  5 H s       :     1.265429  s :     1.265429
      pz      :    -0.010218  p :     0.016215
      px      :     0.030026
      py      :    -0.003593

  6 O s       :     4.132288  s :     4.132288
      pz      :     1.586570  p :     4.715596
      px      :     1.843154
      py      :     1.285872
      dz2     :     0.001487  d :     0.030713
      dxz     :     0.000484
      dyz     :     0.013530
      dx2y2   :     0.007973
      dxy     :     0.007239

  7 O s       :     4.043479  s :     4.043479
      pz      :     1.580570  p :     4.665690
      px      :     1.768707
      py      :     1.316414
      dz2     :     0.001777  d :     0.030705
      dxz     :     0.001269
      dyz     :     0.013283
      dx2y2   :     0.005856
      dxy     :     0.008519

  8 O s       :     3.966804  s :     3.966804
      pz      :     1.831596  p :     4.594354
      px      :     1.526577
      py      :     1.236182
      dz2     :     0.000884  d :     0.017068
      dxz     :     0.007229
      dyz     :     0.004533
      dx2y2   :     0.003563
      dxy     :     0.000858

  9 H s       :     0.736255  s :     0.736255
      pz      :     0.028964  p :     0.090692
      px      :     0.041446
      py      :     0.020282

 10 O s       :     3.802336  s :     3.802336
      pz      :     1.922726  p :     4.572987
      px      :     1.380996
      py      :     1.269265
      dz2     :    -0.002335  d :    -0.010682
      dxz     :     0.001207
      dyz     :     0.001282
      dx2y2   :    -0.011590
      dxy     :     0.000754

 11 H s       :     0.784686  s :     0.784686
      pz      :     0.044710  p :     0.102979
      px      :     0.025714
      py      :     0.032556

 12 H s       :     0.717835  s :     0.717835
      pz      :     0.034638  p :     0.063644
      px      :     0.017249
      py      :     0.011757


SPIN
  0 C s       :     0.006174  s :     0.006174
      pz      :     0.310083  p :     0.345826
      px      :     0.021568
      py      :     0.014176
      dz2     :    -0.000350  d :     0.023790
      dxz     :     0.010519
      dyz     :     0.015392
      dx2y2   :    -0.001879
      dxy     :     0.000108

  1 C s       :    -0.016555  s :    -0.016555
      pz      :     0.146072  p :     0.145313
      px      :     0.001682
      py      :    -0.002440
      dz2     :    -0.000158  d :     0.019367
      dxz     :     0.019737
      dyz     :     0.000056
      dx2y2   :     0.000182
      dxy     :    -0.000451

  2 C s       :    -0.020431  s :    -0.020431
      pz      :    -0.007000  p :    -0.037211
      px      :    -0.021003
      py      :    -0.009209
      dz2     :    -0.000411  d :     0.002975
      dxz     :     0.001461
      dyz     :    -0.000357
      dx2y2   :     0.001090
      dxy     :     0.001191

  3 H s       :     0.018599  s :     0.018599
      pz      :     0.000028  p :    -0.000562
      px      :    -0.000823
      py      :     0.000233

  4 H s       :     0.018586  s :     0.018586
      pz      :     0.000028  p :    -0.000560
      px      :    -0.000821
      py      :     0.000233

  5 H s       :    -0.001310  s :    -0.001310
      pz      :     0.000451  p :     0.001554
      px      :     0.000515
      py      :     0.000588

  6 O s       :     0.016593  s :     0.016593
      pz      :     0.275390  p :     0.276271
      px      :     0.002538
      py      :    -0.001656
      dz2     :     0.000098  d :    -0.001745
      dxz     :    -0.000321
      dyz     :    -0.000626
      dx2y2   :    -0.000333
      dxy     :    -0.000563

  7 O s       :     0.012605  s :     0.012605
      pz      :     0.163250  p :     0.166702
      px      :     0.001956
      py      :     0.001496
      dz2     :     0.000088  d :    -0.000309
      dxz     :     0.000292
      dyz     :    -0.000187
      dx2y2   :    -0.000110
      dxy     :    -0.000392

  8 O s       :     0.002630  s :     0.002630
      pz      :     0.028930  p :     0.025194
      px      :    -0.002886
      py      :    -0.000851
      dz2     :    -0.000049  d :    -0.000109
      dxz     :    -0.000301
      dyz     :     0.000564
      dx2y2   :    -0.000367
      dxy     :     0.000044

  9 H s       :    -0.000553  s :    -0.000553
      pz      :     0.000998  p :    -0.000354
      px      :    -0.001591
      py      :     0.000239

 10 O s       :     0.000031  s :     0.000031
      pz      :     0.000457  p :     0.000145
      px      :    -0.000351
      py      :     0.000038
      dz2     :    -0.000001  d :     0.000010
      dxz     :     0.000003
      dyz     :    -0.000000
      dx2y2   :     0.000011
      dxy     :    -0.000002

 11 H s       :    -0.000319  s :    -0.000319
      pz      :    -0.000007  p :    -0.000052
      px      :    -0.000027
      py      :    -0.000018

 12 H s       :    -0.000882  s :    -0.000882
      pz      :     0.000520  p :    -0.001412
      px      :    -0.001817
      py      :    -0.000115



                     *******************************
                     * LOEWDIN POPULATION ANALYSIS *
                     *******************************

-------------------------------------------
LOEWDIN ATOMIC CHARGES AND SPIN POPULATIONS
-------------------------------------------
   0 C :   -0.426660    0.283386
   1 C :   -0.450696    0.173996
   2 C :    0.119525    0.031325
   3 H :   -0.026153    0.011793
   4 H :   -0.026157    0.011791
   5 H :   -0.031020   -0.001602
   6 O :   -0.048677    0.285402
   7 O :    0.022530    0.169576
   8 O :    0.193003    0.034013
   9 H :   -0.131207    0.000442
  10 O :    0.162142    0.000305
  11 H :   -0.140626   -0.000290
  12 H :   -0.216004   -0.000138

----------------------------------------------------
LOEWDIN REDUCED ORBITAL CHARGES AND SPIN POPULATIONS
----------------------------------------------------
CHARGE
  0 C s       :     2.588552  s :     2.588552
      pz      :     0.778010  p :     2.607587
      px      :     0.923312
      py      :     0.906264
      dz2     :     0.100772  d :     1.230521
      dxz     :     0.148091
      dyz     :     0.206841
      dx2y2   :     0.362331
      dxy     :     0.412485

  1 C s       :     2.570877  s :     2.570877
      pz      :     0.704073  p :     2.483100
      px      :     0.901442
      py      :     0.877585
      dz2     :     0.118714  d :     1.396718
      dxz     :     0.176074
      dyz     :     0.253549
      dx2y2   :     0.403759
      dxy     :     0.444623

  2 C s       :     2.610341  s :     2.610341
      pz      :     0.929631  p :     2.809354
      px      :     0.929951
      py      :     0.949772
      dz2     :     0.066874  d :     0.460781
      dxz     :     0.147698
      dyz     :     0.034722
      dx2y2   :     0.121671
      dxy     :     0.089815

  3 H s       :     0.740422  s :     0.740422
      pz      :     0.118377  p :     0.285732
      px      :     0.093673
      py      :     0.073682

  4 H s       :     0.740424  s :     0.740424
      pz      :     0.118403  p :     0.285733
      px      :     0.093648
      py      :     0.073681

  5 H s       :     0.728944  s :     0.728944
      pz      :     0.075747  p :     0.302076
      px      :     0.098093
      py      :     0.128236

  6 O s       :     3.377294  s :     3.377294
      pz      :     1.432875  p :     4.481204
      px      :     1.626418
      py      :     1.421911
      dz2     :     0.019930  d :     0.190178
      dxz     :     0.001850
      dyz     :     0.049978
      dx2y2   :     0.058615
      dxy     :     0.059806

  7 O s       :     3.344375  s :     3.344375
      pz      :     1.436147  p :     4.451940
      px      :     1.569906
      py      :     1.445887
      dz2     :     0.020626  d :     0.181155
      dxz     :     0.005158
      dyz     :     0.039240
      dx2y2   :     0.058334
      dxy     :     0.057797

  8 O s       :     3.237345  s :     3.237345
      pz      :     1.611014  p :     4.383472
      px      :     1.487643
      py      :     1.284815
      dz2     :     0.023684  d :     0.186180
      dxz     :     0.017662
      dyz     :     0.021909
      dx2y2   :     0.048321
      dxy     :     0.074604

  9 H s       :     0.592131  s :     0.592131
      pz      :     0.123685  p :     0.539076
      px      :     0.242158
      py      :     0.173233

 10 O s       :     3.261156  s :     3.261156
      pz      :     1.716054  p :     4.525825
      px      :     1.444926
      py      :     1.364845
      dz2     :     0.009978  d :     0.050877
      dxz     :     0.000547
      dyz     :     0.000275
      dx2y2   :     0.037779
      dxy     :     0.002298

 11 H s       :     0.640623  s :     0.640623
      pz      :     0.148747  p :     0.500003
      px      :     0.121941
      py      :     0.229314

 12 H s       :     0.601086  s :     0.601086
      pz      :     0.146407  p :     0.614917
      px      :     0.355957
      py      :     0.112554


SPIN
  0 C s       :     0.004412  s :     0.004412
      pz      :     0.207625  p :     0.211569
      px      :     0.002600
      py      :     0.001344
      dz2     :    -0.000577  d :     0.067406
      dxz     :     0.025606
      dyz     :     0.043930
      dx2y2   :     0.000121
      dxy     :    -0.001674

  1 C s       :     0.000252  s :     0.000252
      pz      :     0.102557  p :     0.099738
      px      :    -0.002356
      py      :    -0.000463
      dz2     :    -0.000116  d :     0.074006
      dxz     :     0.063226
      dyz     :     0.010397
      dx2y2   :     0.000840
      dxy     :    -0.000341

  2 C s       :    -0.002047  s :    -0.002047
      pz      :    -0.003598  p :    -0.012463
      px      :    -0.005309
      py      :    -0.003556
      dz2     :     0.000130  d :     0.045835
      dxz     :     0.040678
      dyz     :     0.004305
      dx2y2   :    -0.000322
      dxy     :     0.001045

  3 H s       :     0.009196  s :     0.009196
      pz      :     0.000561  p :     0.002597
      px      :     0.002387
      py      :    -0.000351

  4 H s       :     0.009195  s :     0.009195
      pz      :     0.000562  p :     0.002596
      px      :     0.002386
      py      :    -0.000352

  5 H s       :    -0.000012  s :    -0.000012
      pz      :    -0.000556  p :    -0.001589
      px      :    -0.000648
      py      :    -0.000385

  6 O s       :     0.005043  s :     0.005043
      pz      :     0.248024  p :     0.252268
      px      :     0.004789
      py      :    -0.000546
      dz2     :     0.000344  d :     0.028092
      dxz     :     0.000823
      dyz     :     0.026742
      dx2y2   :     0.000379
      dxy     :    -0.000196

  7 O s       :     0.003205  s :     0.003205
      pz      :     0.148396  p :     0.151259
      px      :     0.002454
      py      :     0.000409
      dz2     :     0.000151  d :     0.015112
      dxz     :     0.002290
      dyz     :     0.012999
      dx2y2   :     0.000010
      dxy     :    -0.000338

  8 O s       :     0.000258  s :     0.000258
      pz      :     0.028076  p :     0.024881
      px      :    -0.001775
      py      :    -0.001420
      dz2     :     0.000004  d :     0.008874
      dxz     :     0.004648
      dyz     :     0.004601
      dx2y2   :    -0.000395
      dxy     :     0.000017

  9 H s       :    -0.001117  s :    -0.001117
      pz      :     0.003266  p :     0.001560
      px      :    -0.001262
      py      :    -0.000444

 10 O s       :    -0.000138  s :    -0.000138
      pz      :     0.000992  p :     0.000441
      px      :    -0.000506
      py      :    -0.000044
      dz2     :    -0.000017  d :     0.000002
      dxz     :     0.000062
      dyz     :     0.000000
      dx2y2   :    -0.000041
      dxy     :    -0.000003

 11 H s       :    -0.000167  s :    -0.000167
      pz      :    -0.000019  p :    -0.000122
      px      :    -0.000054
      py      :    -0.000049

 12 H s       :    -0.000431  s :    -0.000431
      pz      :     0.001473  p :     0.000293
      px      :    -0.001096
      py      :    -0.000083



                      *****************************
                      * MAYER POPULATION ANALYSIS *
                      *****************************

  NA   - Mulliken gross atomic population
  ZA   - Total nuclear charge
  QA   - Mulliken gross atomic charge
  VA   - Mayer's total valence
  BVA  - Mayer's bonded valence
  FA   - Mayer's free valence

  ATOM       NA         ZA         QA         VA         BVA        FA
  0 C      6.0150     6.0000    -0.0150     4.0164     3.8811     0.1353
  1 C      5.0642     6.0000     0.9358     2.6268     2.5924     0.0344
  2 C      5.3727     6.0000     0.6273     3.7814     3.7798     0.0017
  3 H      1.1045     1.0000    -0.1045     0.8564     0.8558     0.0006
  4 H      1.1045     1.0000    -0.1045     0.8564     0.8558     0.0006
  5 H      1.2816     1.0000    -0.2816     0.8435     0.8435    -0.0000
  6 O      8.8786     8.0000    -0.8786     1.4419     1.3599     0.0820
  7 O      8.7399     8.0000    -0.7399     1.6459     1.6161     0.0298
  8 O      8.5782     8.0000    -0.5782     1.6770     1.6758     0.0012
  9 H      0.8269     1.0000     0.1731     1.0404     1.0403     0.0000
 10 O      8.3646     8.0000    -0.3646     1.8556     1.8556    -0.0000
 11 H      0.8877     1.0000     0.1123     1.0322     1.0322     0.0000
 12 H      0.7815     1.0000     0.2185     0.9371     0.9371     0.0000

  Mayer bond orders larger than 0.100000
B(  0-C ,  1-C ) :   0.8959 B(  0-C ,  2-C ) :   1.3687 B(  0-C ,  3-H ) :   0.1308 
B(  0-C ,  4-H ) :   0.1306 B(  0-C ,  5-H ) :   0.2866 B(  0-C ,  6-O ) :   1.0565 
B(  0-C ,  7-O ) :  -0.1005 B(  0-C ,  8-O ) :   0.1571 B(  1-C ,  2-C ) :  -0.1257 
B(  1-C ,  5-H ) :  -0.1964 B(  1-C ,  6-O ) :   0.1284 B(  1-C ,  7-O ) :   1.4493 
B(  1-C ,  8-O ) :   0.5648 B(  2-C ,  3-H ) :   0.8522 B(  2-C ,  4-H ) :   0.8521 
B(  2-C ,  5-H ) :   0.8137 B(  6-O ,  9-H ) :   0.1437 B(  7-O , 12-H ) :   0.1370 
B(  8-O ,  9-H ) :   0.9564 B( 10-O , 11-H ) :   1.0555 B( 10-O , 12-H ) :   0.8539 


-------
TIMINGS
-------

Total SCF time: 0 days 0 hours 1 min 17 sec 

Total time                  ....      77.292 sec
Sum of individual times     ....      73.109 sec  ( 94.6%)

SCF preparation             ....       0.434 sec  (  0.6%)
Fock matrix formation       ....      71.751 sec  ( 92.8%)
  Startup                   ....       0.092 sec  (  0.1% of F)
  Coulomb+Exchange Fock     ....      63.418 sec  ( 88.4% of F)
  XC integration            ....      11.909 sec  ( 16.6% of F)
    XC Preparation          ....       0.000 sec  (  0.0% of XC)
    Basis function eval.    ....       2.841 sec  ( 23.9% of XC)
    Density eval.           ....       2.619 sec  ( 22.0% of XC)
    XC-Functional eval.     ....       0.819 sec  (  6.9% of XC)
    XC-Potential eval.      ....       4.622 sec  ( 38.8% of XC)
Diagonalization             ....       0.000 sec  (  0.0%)
Density matrix formation    ....       0.156 sec  (  0.2%)
Total Energy calculation    ....       0.044 sec  (  0.1%)
Population analysis         ....       0.105 sec  (  0.1%)
Orbital Transformation      ....       0.074 sec  (  0.1%)
Orbital Orthonormalization  ....       0.000 sec  (  0.0%)
DIIS solution               ....       0.232 sec  (  0.3%)
SOSCF solution              ....       0.314 sec  (  0.4%)
Finished LeanSCF after  77.4 sec

Maximum memory used throughout the entire LEANSCF-calculation: 15.6 MB


           ************************************************************
           *        Program running with 8 parallel MPI-processes     *
           *              working on a common directory               *
           ************************************************************

------------------------------------------------------------------------------
                         ORCA PROPERTY INTEGRAL CALCULATIONS
------------------------------------------------------------------------------

GBWName                                   ... d0_freq_1_wat.gbw
Number of atoms                           ...     13
Number of basis functions                 ...    257
Max core memory                           ...   8000 MB

Dipole integrals                          ... YES
Quadrupole integrals                      ...  NO
Linear momentum integrals                 ...  NO
Angular momentum integrals                ...  NO
Higher moments length integrals           ...  NO
Higher moments velocity integrals         ...  NO
Kinetic energy integrals                  ...  NO
GIAO right hand sides                     ...  NO
GIAO dipole derivative integrals          ...  NO
SOC integrals                             ...  NO
EPR diamagnetic integrals (GIAO)          ...  NO
EPR gauge integrals                       ...  NO
Field gradient integrals                  ...  NO (   0 nuclei)
Spin-dipole/Fermi contact integrals       ...  NO (   0 nuclei)
Contact density integrals                 ...  NO (   0 nuclei)
Nucleus-orbit integrals                   ...  NO (   0 nuclei)
Geometric perturbations                   ... YES (  13 nuclei)

Choice of electric origin   ... Center of mass
Position of electric origin ... (  1.2920,  0.3754,  0.0014) 
Choice of magnetic origin   ... GIAO
Position of magnetic origin ... (  0.0000,  0.0000,  0.0000) 

Calculating integrals                     ... Electric Dipole (Length)     done (  0.0 sec)
Calculating integrals                     ... Geometrical perturbation right hand sides

-----------------------
GEOMETRIC PERTURBATIONS (13 nuclei)
-----------------------

MaxCore                            ...   8000 MB
Number of batches                  ...      1

BATCH   0: Atoms    0 -   12 ( 39 perturbations)
   => H(core) and overlap derivative integrals     ... done (     0.2 sec)
   => Making and storing internal U-coefficients   ... done (     0.0 sec)
   => Exact two electron derivative integrals      ... done (    47.3 sec)
   => Exact two-electron response operators        ... done (   152.9 sec)
   => XC derivative integrals                      ... done (    93.9 sec)
   => XC response operators                        ... done (    23.7 sec)
   => Completing and storing right hand sides      ... done (     0.0 sec)
   => Total time for right hand sides = 271.6 sec

  geometrical perturbations done (271.6 sec)

Property integrals calculated in 271.6 sec

Maximum memory used throughout the entire PROPINT-calculation: 90.0 MB

-------------------------   --------------------
FINAL SINGLE POINT ENERGY      -418.822777884153
-------------------------   --------------------



           ************************************************************
           *        Program running with 8 parallel MPI-processes     *
           *              working on a common directory               *
           ************************************************************
------------------------------------------------------------------------------
                         ORCA SCF GRADIENT CALCULATION
------------------------------------------------------------------------------

Nuc. rep. gradient        (SHARK) ... done (  0.0 sec)
HCore & Overlap gradient  (SHARK) ... done (  0.1 sec)
Two-electron gradient     (SHARK) ... done ( 18.5 sec)
XC gradient                       ... done (  4.5 sec)

------------------
CARTESIAN GRADIENT
------------------

   1   C   :    0.000006910    0.000036500   -0.000019258
   2   C   :    0.000045395    0.000083948    0.000011459
   3   C   :   -0.000041426   -0.000001716    0.000000659
   4   H   :    0.000006523   -0.000003781   -0.000003391
   5   H   :    0.000006848   -0.000004595    0.000003148
   6   H   :    0.000016763   -0.000005409    0.000000676
   7   O   :   -0.000013770   -0.000014326    0.000017266
   8   O   :    0.000031854   -0.000135122   -0.000000032
   9   O   :   -0.000069032   -0.000030857    0.000007124
  10   H   :    0.000038021    0.000008137   -0.000016258
  11   O   :    0.000044496   -0.000049634    0.000006115
  12   H   :   -0.000012905   -0.000003098   -0.000001078
  13   H   :   -0.000059676    0.000119952   -0.000006429

Difference to translation invariance:
           :   -0.0000000000    0.0000000000    0.0000000000

Difference to rotation invariance:
           :    0.0000000540   -0.0000007385   -0.0000204365

Norm of the Cartesian gradient     ...    0.0002516464
RMS gradient                       ...    0.0000402957
MAX gradient                       ...    0.0001351224

-------
TIMINGS
-------

Total SCF gradient time     ....       23.115 sec

Densities                   ....       0.001 sec  (  0.0%)
One electron gradient       ....       0.075 sec  (  0.3%)
Two electron gradient       ....      18.533 sec  ( 80.2%)
XC gradient                 ....       4.505 sec  ( 19.5%)

Maximum memory used throughout the entire SCFGRAD-calculation: 29.5 MB


           ************************************************************
           *        Program running with 8 parallel MPI-processes     *
           *              working on a common directory               *
           ************************************************************
------------------------------------------------------------------------------
                            ORCA SCF RESPONSE CALCULATION
------------------------------------------------------------------------------

GBWName                                 ... d0_freq_1_wat.gbw
Number of atoms                         ...     13
Number of basis functions               ...    257
Max core memory                         ...   8000 MB

Electric field perturbation             ...  NO
Quadrupolar field perturbation          ...  NO
Magnetic field perturbation (no GIAO)   ...  NO
Magnetic field perturbation (with GIAO) ...  NO
Linear momentum (velocity) perturbation ...  NO
Spin-orbit coupling perturbation        ...  NO
Choice of electric origin               ... Center of mass
Position of electric origin             ...     1.292018     0.375400     0.001421
Choice of magnetic origin               ... GIAO
Position of magnetic origin             ...     0.000000     0.000000     0.000000
Nuclear geometric perturbations         ... YES (  39 perturbations)
Nucleus-orbit perturbations             ...  NO (   0 perturbations)
Spin-dipole/Fermi contact perturbations ...  NO (   0 perturbations)

Total number of real perturbations      ...     39
Total number of imaginary perturbations ...      0
Total number of triplet perturbations   ...      0
Total number of SOC perturbations       ...      0

Using XC Grid                  ... (d0_freq_1_wat.grid_cpscf.tmp) 
Recalculating density on grid  ... (d0_freq_1_wat.grho_cpscf0.tmp) done
Calculating the xc-kernel      ... (d0_freq_1_wat.fxc_cpscf0.tmp) done

                                **********************
                                * REAL PERTURBATIONS *
                                **********************



-------------------
SHARK CP-SCF DRIVER
-------------------

Dimension of the orbital basis          ...    215
Dimension of the CPSCF-problem          ...  10630
Number of operators                     ...      2
Max. number of iterations               ...    128
Convergence Tolerance                   ... 1.0e-04
Number of perturbations                 ...     39
Perturbation type                       ... REAL

----------------------------
POPLE LINEAR EQUATION SOLVER
----------------------------

  ITERATION   0:   ||err||_max =   2.8127e-01 ( 299.4 sec   0/ 39 done)
  ITERATION   1:   ||err||_max =   7.7520e-02 ( 289.2 sec   0/ 39 done)
  ITERATION   2:   ||err||_max =   4.2523e-02 ( 263.7 sec   0/ 39 done)
  ITERATION   3:   ||err||_max =   2.1560e-02 ( 277.4 sec   0/ 39 done)
  ITERATION   4:   ||err||_max =   9.1078e-03 ( 278.1 sec   0/ 39 done)
  ITERATION   5:   ||err||_max =   4.1369e-03 ( 266.1 sec   2/ 39 done)
  ITERATION   6:   ||err||_max =   1.4555e-03 ( 252.1 sec   7/ 39 done)
  ITERATION   7:   ||err||_max =   6.8117e-04 ( 203.2 sec  12/ 39 done)
  ITERATION   8:   ||err||_max =   2.6628e-04 ( 157.8 sec  30/ 39 done)
  ITERATION   9:   ||err||_max =   1.1301e-04 (  40.1 sec  34/ 39 done)
  ITERATION  10:   ||err||_max =   4.1223e-05 (  23.1 sec  39/ 39 done)

CP-SCF equations solved in 2350.2 sec
Response densities calculated in   0.2 sec

Maximum memory used throughout the entire SCFRESP-calculation: 125.1 MB


           ************************************************************
           *        Program running with 8 parallel MPI-processes     *
           *              working on a common directory               *
           ************************************************************

------------------------------------------------------------------------------
                              ORCA PROPERTY CALCULATIONS
------------------------------------------------------------------------------

GBWName                                 ... d0_freq_1_wat.gbw
Number of atoms                         ...     13
Number of basis functions               ...    257
Max core memory                         ...   8000 MB

Electric properties:
Dipole moment                           ... YES
Quadrupole moment                       ...  NO
Static polarizability (Dipole/Dipole)   ...  NO
Static polarizability (Dipole/Quad.)    ...  NO
Static polarizability (Quad./Quad.)     ...  NO
Static polarizability (Velocity)        ...  NO
Static hyperpolarizability              ...  NO

Atomic electric properties:
Dipole moment                           ...  NO
Quadrupole moment                       ...  NO
Static polarizability                   ...  NO

Choice of electric origin               ... Center of mass
Position of electric origin             ...     1.292018     0.375400     0.001421

General magnetic properties:
Magnetizability                         ...  NO

EPR properties:
g-Tensor (aka g-matrix)                 ...  NO
Zero-Field splitting spin-orbit         ...  NO
Zero-field splitting spin-spin          ...  NO
Hyperfine couplings                     ...  NO (   0 nuclei)
Quadrupole couplings                    ...  NO (   0 nuclei)
Contact density                         ...  NO (   0 nuclei)

NMR properties:
Chemical shifts                         ...  NO (   0 nuclei)
Spin-rotation constants                 ...  NO (   0 nuclei)
Spin-spin couplings                     ...  NO (   0 nuclei,    0 pairs)

Choice of magnetic origin               ... GIAO
Position of magnetic origin             ...     0.000000     0.000000     0.000000

Properties with geometric perturbations:
SCF Hessian                             ... YES
IR spectrum                             ... YES
VCD spectrum                            ...  NO
X-ray spectroscopy properties:
SCF XES/XAS/RIXS spectra                ...  NO

SCF SOC stabilization energy            ...  NO
Diagonal Born-Oppenheimer correction    ...  NO

-------------
DIPOLE MOMENT
-------------

Method             : SCF
Type of density    : Electron Density
Multiplicity       :   2
Irrep              :   0
Energy             :  -418.8227778841528561 Eh
Basis              : AO
                                X                 Y                 Z
Electronic contribution:      1.678658162      -2.298658692      -0.000790024
Nuclear contribution   :     -2.373276644       2.042830617      -0.000125815
                        -----------------------------------------
Total Dipole Moment    :     -0.694618482      -0.255828075      -0.000915839
                        -----------------------------------------
Magnitude (a.u.)       :      0.740232178
Magnitude (Debye)      :      1.881520671



--------------------
Rotational spectrum 
--------------------
 
Rotational constants in cm-1:             0.175530             0.044258             0.035582 
Rotational constants in MHz :          5262.252979          1326.829936          1066.735018 

Dipole components along the rotational axes: 
x,y,z [a.u.] :    -0.739523     0.032391    -0.000505 
x,y,z [Debye]:    -1.879718     0.082332    -0.001283 

 

Dipole moment calculation done in   0.1 sec 

-----------
SCF HESSIAN
-----------

Occupied/Occupied contributions to the Hessian:
   => Occupied/Occupied contributions              ... done (  0.3 sec)
Perturbed density contributions to the Hessian:
   => Perturbed density contributions              ... done (  0.0 sec)
Explicit contributions to the Hessian:
   => Nuclear repulsion Hessian                    ... done (  0.0 sec)
   => HCore and overlap Hessian                    ... done (  1.6 sec)
   => Exact two electron integral Hessian          ... done (140.1 sec)
   => XC-Hessian                                   ... done ( 30.2 sec)
   => Explicit contributions done
Dipole derivatives                                 ... done (  0.2 sec)
Mass weighting the Hessian           ... done
Calculating normal modes             ... done
Scaling frequencies                  ... done

-----------------------
VIBRATIONAL FREQUENCIES
-----------------------

Scaling factor for frequencies =  1.000000000  (already applied!)

     0:       0.00 cm**-1
     1:       0.00 cm**-1
     2:       0.00 cm**-1
     3:       0.00 cm**-1
     4:       0.00 cm**-1
     5:       0.00 cm**-1
     6:      34.79 cm**-1
     7:      56.10 cm**-1
     8:     114.49 cm**-1
     9:     161.58 cm**-1
    10:     182.25 cm**-1
    11:     268.88 cm**-1
    12:     289.56 cm**-1
    13:     363.45 cm**-1
    14:     400.69 cm**-1
    15:     407.70 cm**-1
    16:     572.63 cm**-1
    17:     599.00 cm**-1
    18:     683.05 cm**-1
    19:     791.88 cm**-1
    20:     795.74 cm**-1
    21:     803.44 cm**-1
    22:     979.09 cm**-1
    23:    1009.45 cm**-1
    24:    1107.95 cm**-1
    25:    1299.81 cm**-1
    26:    1356.08 cm**-1
    27:    1424.24 cm**-1
    28:    1455.65 cm**-1
    29:    1463.94 cm**-1
    30:    1530.86 cm**-1
    31:    1706.63 cm**-1
    32:    1728.57 cm**-1
    33:    3008.39 cm**-1
    34:    3058.14 cm**-1
    35:    3142.10 cm**-1
    36:    3491.94 cm**-1
    37:    3534.62 cm**-1
    38:    3926.57 cm**-1


------------
NORMAL MODES
------------

These modes are the Cartesian displacements weighted by the diagonal matrix
M(i,i)=1/sqrt(m[i]) where m[i] is the mass of the displaced atom
Thus, these vectors are normalized but *not* orthogonal

                  0          1          2          3          4          5    
      0       0.000000   0.000000   0.000000   0.000000   0.000000   0.000000
      1       0.000000   0.000000   0.000000   0.000000   0.000000   0.000000
      2       0.000000   0.000000   0.000000   0.000000   0.000000   0.000000
      3       0.000000   0.000000   0.000000   0.000000   0.000000   0.000000
      4       0.000000   0.000000   0.000000   0.000000   0.000000   0.000000
      5       0.000000   0.000000   0.000000   0.000000   0.000000   0.000000
      6       0.000000   0.000000   0.000000   0.000000   0.000000   0.000000
      7       0.000000   0.000000   0.000000   0.000000   0.000000   0.000000
      8       0.000000   0.000000   0.000000   0.000000   0.000000   0.000000
      9       0.000000   0.000000   0.000000   0.000000   0.000000   0.000000
     10       0.000000   0.000000   0.000000   0.000000   0.000000   0.000000
     11       0.000000   0.000000   0.000000   0.000000   0.000000   0.000000
     12       0.000000   0.000000   0.000000   0.000000   0.000000   0.000000
     13       0.000000   0.000000   0.000000   0.000000   0.000000   0.000000
     14       0.000000   0.000000   0.000000   0.000000   0.000000   0.000000
     15       0.000000   0.000000   0.000000   0.000000   0.000000   0.000000
     16       0.000000   0.000000   0.000000   0.000000   0.000000   0.000000
     17       0.000000   0.000000   0.000000   0.000000   0.000000   0.000000
     18       0.000000   0.000000   0.000000   0.000000   0.000000   0.000000
     19       0.000000   0.000000   0.000000   0.000000   0.000000   0.000000
     20       0.000000   0.000000   0.000000   0.000000   0.000000   0.000000
     21       0.000000   0.000000   0.000000   0.000000   0.000000   0.000000
     22       0.000000   0.000000   0.000000   0.000000   0.000000   0.000000
     23       0.000000   0.000000   0.000000   0.000000   0.000000   0.000000
     24       0.000000   0.000000   0.000000   0.000000   0.000000   0.000000
     25       0.000000   0.000000   0.000000   0.000000   0.000000   0.000000
     26       0.000000   0.000000   0.000000   0.000000   0.000000   0.000000
[...]
     33       0.024724  -0.015038   0.001228   0.016587  -0.000003   0.007879
     34      -0.000395   0.000038  -0.000189   0.001050   0.000000   0.000480
     35       0.000041  -0.000024   0.000003   0.000022   0.000164   0.000010
     36       0.002136  -0.004466   0.005742  -0.011395   0.000003  -0.005295
     37       0.035697  -0.018530  -0.001345   0.028154  -0.000005   0.013190
     38       0.000005  -0.000031   0.000025  -0.000034   0.000569  -0.000009
                 30         31         32         33         34         35    
      0       0.111011   0.043705  -0.096606   0.001225   0.000000  -0.002508
      1       0.402993   0.046259  -0.084152   0.001336   0.000000  -0.000873
      2       0.000012   0.000007  -0.000017   0.000000  -0.000256  -0.000000
      3      -0.018071  -0.074338   0.184972  -0.002312  -0.000000   0.000511
      4       0.129927  -0.117710   0.240336  -0.001708  -0.000000  -0.000699
      5       0.000025  -0.000034   0.000083  -0.000001  -0.000526   0.000000
      6       0.015390  -0.003898   0.008784   0.051567   0.000021  -0.045537
      7      -0.028488  -0.004913   0.008044  -0.010536   0.000002  -0.077827
      8       0.000005   0.000001  -0.000003   0.000013  -0.091525  -0.000012
      9      -0.264260  -0.030225   0.052666  -0.367804  -0.414496   0.123380
     10      -0.080518   0.020708  -0.040908  -0.096536  -0.107535   0.021701
     11      -0.208273  -0.021309   0.034549   0.544573   0.558798  -0.189176
     12      -0.264343  -0.030231   0.052674  -0.367596   0.414235   0.123296
     13      -0.080518   0.020718  -0.040929  -0.096514   0.107499   0.021691
     14       0.208152   0.021293  -0.034521  -0.544768   0.558949   0.189225
     15       0.377310   0.014511  -0.022532   0.123750   0.000009   0.319892
     16      -0.154273  -0.013054   0.021325   0.315400   0.000014   0.886860
     17       0.000058  -0.000019   0.000044   0.000036  -0.020648   0.000094
     18      -0.048907  -0.006335   0.009460  -0.000305  -0.000000   0.000399
     19      -0.236522  -0.020875   0.035696  -0.000374  -0.000000   0.000508
     20       0.000005   0.000002  -0.000005  -0.000000   0.000114  -0.000000
     21      -0.032966   0.023897  -0.062320   0.000415   0.000000  -0.000356
     22      -0.067222   0.066623  -0.123530   0.001219   0.000000   0.000274
     23      -0.000021   0.000015  -0.000034   0.000000   0.000026  -0.000000
     24      -0.017633   0.020074  -0.044938   0.000767   0.000000  -0.000200
     25      -0.032858   0.007002  -0.013648  -0.000173  -0.000000  -0.000161
     26      -0.000016   0.000009  -0.000020   0.000000   0.000078  -0.000000
     27       0.460738  -0.163556   0.316402  -0.002563  -0.000000   0.002091
     28      -0.350843   0.105946  -0.220841  -0.002947  -0.000000   0.005872
     29       0.000084  -0.000074   0.000104  -0.000003  -0.000584   0.000004
     30      -0.003712   0.049921   0.039241  -0.000348  -0.000000   0.000195
     31      -0.000452   0.043109   0.038246   0.000130   0.000000  -0.000051
     32      -0.000006   0.000072   0.000056  -0.000000   0.000014   0.000000
     33       0.018055  -0.602022  -0.509854  -0.001161  -0.000000   0.000138
     34      -0.000422  -0.015226  -0.015647   0.000206   0.000000   0.000035
     35       0.000019  -0.000713  -0.000602  -0.000001  -0.000085   0.000000
     36       0.019956  -0.166725  -0.117560   0.005478   0.000001  -0.002983
     37       0.005651  -0.730638  -0.656209  -0.002361  -0.000000   0.000899
     38       0.000068  -0.000422  -0.000286   0.000006  -0.000211  -0.000004
                 36         37         38    
      0       0.000273  -0.000282   0.000046
      1       0.000395   0.003764  -0.000014
      2      -0.000000  -0.000001  -0.000000
      3      -0.000067   0.002601   0.000111
      4       0.005939  -0.006964   0.000953
      5       0.000001  -0.000001   0.000000
      6       0.000482   0.000418   0.000031
      7       0.000104  -0.000418   0.000018
      8      -0.000000   0.000000  -0.000000
      9      -0.003346  -0.003130  -0.000082
     10      -0.000642   0.000477  -0.000058
     11       0.003714   0.002589   0.000117
     12      -0.003344  -0.003127  -0.000082
     13      -0.000642   0.000476  -0.000058
     14      -0.003714  -0.002590  -0.000117
     15       0.000815  -0.000121   0.000075
     16      -0.001298  -0.005162  -0.000161
     17       0.000002  -0.000000  -0.000000
     18      -0.000278   0.001096  -0.000010
     19      -0.001044  -0.002632  -0.000088
     20       0.000000  -0.000001   0.000000
     21      -0.001660  -0.000439  -0.000378
     22      -0.003226   0.001107  -0.000314
     23      -0.000001  -0.000000  -0.000000
     24      -0.000802  -0.035651   0.000211
     25      -0.003402  -0.048661  -0.000228
     26      -0.000001  -0.000032   0.000000
     27       0.025560   0.529885  -0.001794
     28       0.039369   0.844513  -0.002447
     29       0.000027   0.000541  -0.000001
     30       0.059664  -0.002595   0.006660
     31      -0.010029   0.000402  -0.061256
     32       0.000067  -0.000003  -0.000011
     33       0.035695  -0.004409  -0.047299
     34      -0.063759   0.005756   0.995168
     35       0.000023  -0.000004   0.000250
     36      -0.967070   0.044915  -0.055951
     37       0.231204  -0.012779  -0.021590
     38      -0.001073   0.000048  -0.000072


-----------
IR SPECTRUM
-----------

 Mode   freq       eps      Int      T**2         TX        TY        TZ
       cm**-1   L/(mol*cm) km/mol    a.u.
----------------------------------------------------------------------------
  6:     34.79   0.000011    0.05  0.000097  (-0.000109  0.000039  0.009865)
  7:     56.10   0.000744    3.76  0.004139  (-0.060714  0.021281 -0.000064)
  8:    114.49   0.000000    0.00  0.000001  ( 0.000004  0.000033  0.000955)
  9:    161.58   0.002339   11.82  0.004517  (-0.000095  0.000006  0.067206)
 10:    182.25   0.000936    4.73  0.001603  ( 0.038866  0.009618  0.000117)
 11:    268.88   0.009648   48.76  0.011198  ( 0.000116  0.000024 -0.105820)
 12:    289.56   0.007500   37.90  0.008082  (-0.089013 -0.012614  0.000001)
 13:    363.45   0.000173    0.88  0.000149  (-0.000020  0.000002  0.012199)
 14:    400.69   0.003740   18.90  0.002912  (-0.032557  0.043041  0.000022)
 15:    407.70   0.010959   55.38  0.008389  ( 0.060113 -0.069100  0.000054)
 16:    572.63   0.001550    7.83  0.000845  (-0.028806  0.003844 -0.000034)
 17:    599.00   0.000435    2.20  0.000227  ( 0.012958 -0.007659  0.000007)
 18:    683.05   0.000019    0.10  0.000009  (-0.000037 -0.000015  0.002959)
 19:    791.88   0.033304  168.30  0.013124  (-0.000123 -0.000045  0.114562)
 20:    795.74   0.000172    0.87  0.000068  ( 0.000067  0.000048  0.008224)
 21:    803.44   0.001794    9.07  0.000697  (-0.013379  0.022759  0.000080)
 22:    979.09   0.002858   14.45  0.000911  (-0.027406 -0.012647  0.000005)
 23:   1009.45   0.000021    0.11  0.000007  (-0.000018  0.000003  0.002554)
 24:   1107.95   0.028696  145.02  0.008082  ( 0.089581 -0.007592  0.000006)
 25:   1299.81   0.015846   80.08  0.003804  ( 0.013680 -0.060143  0.000000)
 26:   1356.08   0.019976  100.95  0.004597  (-0.022997  0.063781  0.000007)
 27:   1424.24   0.040311  203.72  0.008833  ( 0.030736 -0.088813 -0.000014)
 28:   1455.65   0.000871    4.40  0.000187  (-0.000015  0.000023  0.013663)
 29:   1463.94   0.004904   24.78  0.001045  ( 0.031986 -0.004713 -0.000001)
 30:   1530.86   0.056917  287.63  0.011602  ( 0.064281  0.086432  0.000023)
 31:   1706.63   0.101862  514.77  0.018626  (-0.121648 -0.061868 -0.000095)
 32:   1728.57   0.015292   77.28  0.002761  ( 0.045044  0.027049 -0.000002)
 33:   3008.39   0.024104  121.81  0.002500  ( 0.049134 -0.009282  0.000014)
 34:   3058.14   0.012559   63.47  0.001282  ( 0.000011 -0.000001 -0.035800)
 35:   3142.10   0.003776   19.08  0.000375  (-0.009163 -0.017060 -0.000002)
 36:   3491.94   0.186068  940.31  0.016628  (-0.128178 -0.014095 -0.000111)
 37:   3534.62   0.026584  134.34  0.002347  ( 0.041041  0.025742  0.000023)
 38:   3926.57   0.004207   21.26  0.000334  (-0.009160  0.015825 -0.000004)

* The epsilon (eps) is given for a Dirac delta lineshape.
** The dipole moment derivative (T) already includes vibrational overlap.

The first frequency considered to be a vibration is 6
The total number of vibrations considered is 33


--------------------------
THERMOCHEMISTRY AT 298.15K
--------------------------

Temperature         ...   298.15 K
Pressure            ...     1.00 atm
Total Mass          ...   106.08 AMU
Quasi RRHO          ...     True
Cut-Off Frequency   ...     1.00 cm^-1

Throughout the following assumptions are being made:
  (1) The electronic state is orbitally nondegenerate
      but the spin degeneracy is treated
  (2) There are no thermally accessible electronically excited states
  (3) Hindered rotations indicated by low frequency modes are not
      treated as such but are treated as vibrations and this may
      cause some error
  (4) All equations used are the standard statistical mechanics
      equations for an ideal gas
  (5) All vibrations are strictly harmonic

freq.      34.79  E(vib)   ...       0.54 
freq.      56.10  E(vib)   ...       0.52 
freq.     114.49  E(vib)   ...       0.44 
freq.     161.58  E(vib)   ...       0.39 
freq.     182.25  E(vib)   ...       0.37 
freq.     268.88  E(vib)   ...       0.29 
freq.     289.56  E(vib)   ...       0.27 
freq.     363.45  E(vib)   ...       0.22 
freq.     400.69  E(vib)   ...       0.19 
freq.     407.70  E(vib)   ...       0.19 
freq.     572.63  E(vib)   ...       0.11 
freq.     599.00  E(vib)   ...       0.10 
freq.     683.05  E(vib)   ...       0.08 
freq.     791.88  E(vib)   ...       0.05 
freq.     795.74  E(vib)   ...       0.05 
freq.     803.44  E(vib)   ...       0.05 
freq.     979.09  E(vib)   ...       0.03 
freq.    1009.45  E(vib)   ...       0.02 
freq.    1107.95  E(vib)   ...       0.02 
freq.    1299.81  E(vib)   ...       0.01 
freq.    1356.08  E(vib)   ...       0.01 
freq.    1424.24  E(vib)   ...       0.00 
freq.    1455.65  E(vib)   ...       0.00 
freq.    1463.94  E(vib)   ...       0.00 
freq.    1530.86  E(vib)   ...       0.00 
freq.    1706.63  E(vib)   ...       0.00 
freq.    1728.57  E(vib)   ...       0.00 
freq.    3008.39  E(vib)   ...       0.00 
freq.    3058.14  E(vib)   ...       0.00 
freq.    3142.10  E(vib)   ...       0.00 
freq.    3491.94  E(vib)   ...       0.00 
freq.    3534.62  E(vib)   ...       0.00 
freq.    3926.57  E(vib)   ...       0.00 

------------
INNER ENERGY
------------

The inner energy is: U= E(el) + E(ZPE) + E(vib) + E(rot) + E(trans)
    E(el)   - is the total energy from the electronic structure calculation
              = E(kin-el) + E(nuc-el) + E(el-el) + E(nuc-nuc)
    E(ZPE)  - the the zero temperature vibrational energy from the frequency calculation
    E(vib)  - the the finite temperature correction to E(ZPE) due to population
              of excited vibrational states
    E(rot)  - is the rotational thermal energy
    E(trans)- is the translational thermal energy

Summary of contributions to the inner energy U:
Electronic energy                ...   -418.82277788 Eh
Zero point energy                ...      0.09511173 Eh      59.68 kcal/mol
Thermal vibrational correction   ...      0.00630056 Eh       3.95 kcal/mol
Thermal rotational correction    ...      0.00141627 Eh       0.89 kcal/mol
Thermal translational correction ...      0.00141627 Eh       0.89 kcal/mol
-----------------------------------------------------------------------
Total thermal energy                   -418.71853305 Eh


Summary of corrections to the electronic energy:
(perhaps to be used in another calculation)
Total thermal correction                  0.00913311 Eh       5.73 kcal/mol
Non-thermal (ZPE) correction              0.09511173 Eh      59.68 kcal/mol
-----------------------------------------------------------------------
Total correction                          0.10424484 Eh      65.41 kcal/mol


--------
ENTHALPY
--------

The enthalpy is H = U + kB*T
                kB is Boltzmann's constant
Total thermal energy              ...   -418.71853305 Eh 
Thermal Enthalpy correction       ...      0.00094421 Eh       0.59 kcal/mol
-----------------------------------------------------------------------
Total Enthalpy                    ...   -418.71758884 Eh


Note: Only C1 symmetry has been detected, increase convergence thresholds 
      if your molecule has a higher symmetry. Symmetry factor of 1.0 is   
      used for the rotational entropy correction. 
 

Note: Rotational entropy computed according to Herzberg 
Infrared and Raman Spectra, Chapter V,1, Van Nostrand Reinhold, 1945 
Point Group:  C1, Symmetry Number:   1  
Rotational constants in cm-1:     0.175530     0.044258     0.035582 

Vibrational entropy computed according to the QRRHO of S. Grimme
Chem.Eur.J. 2012 18 9955 using a reference frequency of 100.0 cm-1


-------
ENTROPY
-------

The entropy contributions are T*S = T*(S(el)+S(vib)+S(rot)+S(trans))
     S(el)   - electronic entropy
     S(vib)  - vibrational entropy
     S(rot)  - rotational entropy
     S(trans)- translational entropy
The entropies will be listed as multiplied by the temperature to get
units of energy

Electronic entropy                ...      0.00065446 Eh      0.41 kcal/mol
Vibrational entropy               ...      0.01124305 Eh      7.06 kcal/mol
Rotational entropy                ...      0.01337891 Eh      8.40 kcal/mol
Translational entropy             ...      0.01895480 Eh     11.89 kcal/mol
-----------------------------------------------------------------------
Final entropy term                ...      0.04423121 Eh     27.76 kcal/mol

In case the symmetry of your molecule has not been determined correctly
or in case you have a reason to use a different symmetry number we print 
out the resulting rotational entropy values for sn=1,12:

 non-linear molecules -----------------------------------
|  sn= 1 | S(rot)=       0.01337891 Eh      8.40 kcal/mol|
|  sn= 2 | S(rot)=       0.01272445 Eh      7.98 kcal/mol|
|  sn= 3 | S(rot)=       0.01234162 Eh      7.74 kcal/mol|
|  sn= 4 | S(rot)=       0.01207000 Eh      7.57 kcal/mol|
|  sn= 5 | S(rot)=       0.01185931 Eh      7.44 kcal/mol|
|  sn= 6 | S(rot)=       0.01168717 Eh      7.33 kcal/mol|
|  sn= 7 | S(rot)=       0.01154162 Eh      7.24 kcal/mol|
|  sn= 8 | S(rot)=       0.01141554 Eh      7.16 kcal/mol|
|  sn= 9 | S(rot)=       0.01130433 Eh      7.09 kcal/mol|
|  sn=10 | S(rot)=       0.01120485 Eh      7.03 kcal/mol|
|  sn=11 | S(rot)=       0.01111486 Eh      6.97 kcal/mol|
|  sn=12 | S(rot)=       0.01103271 Eh      6.92 kcal/mol|
 linear molecules ---------------------------------------
|  Dinfh | S(rot)=       0.00847550 Eh      5.32 kcal/mol|
|  Cinfv | S(rot)=       0.00912996 Eh      5.73 kcal/mol|
 --------------------------------------------------------


-------------------
GIBBS FREE ENERGY
-------------------

The Gibbs free energy is G = H - T*S

Total enthalpy                    ...   -418.71758884 Eh 
Total entropy correction          ...     -0.04423121 Eh    -27.76 kcal/mol
-----------------------------------------------------------------------
Final Gibbs free energy         ...   -418.76182005 Eh

For completeness - the Gibbs free energy minus the electronic energy
G-E(el)                           ...      0.06095783 Eh     38.25 kcal/mol


Maximum memory used throughout the entire PROP-calculation: 38.7 MB

--------------------------------
SUGGESTED CITATIONS FOR THIS RUN
--------------------------------

Below you find a list of papers that are relevant to this ORCA run
We neither can nor want to force you to cite these papers, but we appreciate if you do
You receive ORCA, which is the product of decades of hard work by many enthusiastic individuals, for free
The only thing we kindly ask in return is that you cite our papers,
We deeply appreciate it, if you show your appreciation for ORCA by not just citing the generic ORCA reference.

Please note that relegating all ORCA citations to the supporting information does *not* help us.
SI sections are not indexed - citations you put there will not count into any citation statistics
But we need these citations in order to attract the funding resources that allow us to do what we are doing

Therefore, if you are a happy ORCA user, please consider citing a few of the papers listed below in the main body of your paper

In addition to the list printed below, the program has created the file d0_freq_1_wat.bibtex that contains the list in bibtex format
You can import this file easily into all common literature databanks and citation aid programs


List of essential papers. We consider these as the minimum necessary citations

  1. Neese, F.
     Software update: the ORCA program system, version 6.0
     WIRES Comput. Molec. Sci. 2025 15(1), e70019
     doi.org/10.1002/wcms.7019

List of papers to cite with high priority. The work reported in these papers was absolutely
necessary for this run to complete.
Our perspective: the developers of density functionals and basis sets usually get cited in chemistry papers
Good! But without the algorithms to do something with them, the functionals or basis sets would not do anything.
Hence, in our opinion, the algorithm design and method developments papers are equally worthy of getting cited

  1. Bykov, D.; Petrenko, T.; Izsak, R.; Kossmann, S.; Becker, U.; Valeev, E.; Neese, F.
     Efficient implementation of the analytic second derivatives of Hartree-Fock and hybrid DFT energies: a detailed analysis of different approximations
     Molec. Phys. 2015 113 , 1961-1977
     doi.org/10.1080/00268976.2015.1025114
  2. Lehtola, S.; Steigemann, C.; Oliveira, M.; Marques, M.
     Recent developments in Libxc - A comprehensive library of functionals for density functional theory
     Software X 2018 7 , 
     doi.org/10.1016/j.softx.2017.11.002
  3. Neese, F.
     The SHARK Integral Generation and Digestion System
     J. Comp. Chem. 2022 44(3), 381
     doi.org/10.1002/jcc.26942

List of suggested additional citations. These are papers that are important in the 'surrounding' of 
of this run, or papers that preceded the highly important papers. If you like your results we are grateful for a citation.

  1. Neese, F.
     The ORCA program system
     WIRES Comput. Molec. Sci. 2012 2(1), 73-78
     doi.org/10.1002/wcms.81
  2. Neese, F.
     Software update: the ORCA program system, version 4.0
     WIRES Comput. Molec. Sci. 2018 8(1), 1-6
     doi.org/10.1002/wcms.1327
  3. Neese, F.; Wennmohs, F.; Becker, U.; Riplinger, C.
     The ORCA quantum chemistry program package
     J. Chem. Phys. 2020 152(22), 224108
     doi.org/10.1063/5.0004608
  4. Neese, F.
     Software update: The ORCA program system—Version 5.0
     WIRES Comput. Molec. Sci. 2022 12(1), e1606
     doi.org/10.1002/wcms.1606

List of optional additional citations

  1. Neese, F.
     Approximate second-order SCF convergence for spin unrestricted wavefunctions
     Chem. Phys. Lett. 2000 325(1-3), 93-98
     doi.org/10.1016/s0009-2614(00)00662-x

Timings for individual modules:

Sum of individual times          ...     2913.418 sec (=  48.557 min)
Startup calculation              ...        9.737 sec (=   0.162 min)   0.3 %
SCF iterations                   ...       78.981 sec (=   1.316 min)   2.7 %
Property integrals               ...      273.026 sec (=   4.550 min)   9.4 %
SCF Response                     ...     2352.262 sec (=  39.204 min)  80.7 %
Property calculations            ...      174.302 sec (=   2.905 min)   6.0 %
SCF Gradient evaluation          ...       25.110 sec (=   0.418 min)   0.9 %
                             ****ORCA TERMINATED NORMALLY****
TOTAL RUN TIME: 0 days 0 hours 48 minutes 35 seconds 381 msec
