
                                 *****************
                                 * O   R   C   A *
                                 *****************

                                            #,                                       
                                            ###                                      
                                            ####                                     
                                            #####                                    
                                            ######                                   
                                           ########,                                 
                                     ,,################,,,,,                         
                               ,,#################################,,                 
                          ,,##########################################,,             
                       ,#########################################, ''#####,          
                    ,#############################################,,   '####,        
                  ,##################################################,,,,####,       
                ,###########''''           ''''###############################       
              ,#####''   ,,,,##########,,,,          '''####'''          '####       
            ,##' ,,,,###########################,,,                        '##       
           ' ,,###''''                  '''############,,,                           
         ,,##''                                '''############,,,,        ,,,,,,###''
      ,#''                                            '''#######################'''  
     '                                                          ''''####''''         
             ,#######,   #######,   ,#######,      ##                                
            ,#'     '#,  ##    ##  ,#'     '#,    #''#        ,####,    ,#,          
            ##       ##  ##   ,#'  ##            #'  '#       #'       ,# #          
            ##       ##  #######   ##           ,######,      #####,      #          
            '#,     ,#'  ##    ##  '#,     ,#' ,#      #,     #,   #      #          
             '#######'   ##     ##  '#######'  #'      '#     '####' #    #          



                #########################################################
                #                        -***-                          #
                #          Department of theory and spectroscopy        #
                #                                                       #
                #                      Frank Neese                      #
                #                                                       #
                #     Directorship, Architecture, Infrastructure        #
                #                    SHARK, DRIVERS                     #
                #        Core code/Algorithms in most modules           #
                #                                                       #
                #        Max Planck Institute fuer Kohlenforschung      #
                #                Kaiser Wilhelm Platz 1                 #
                #                 D-45470 Muelheim/Ruhr                 #
                #                      Germany                          #
                #                                                       #
                #                  All rights reserved                  #
                #                        -***-                          #
                #########################################################


                         Program Version 6.1.0  -  RELEASE   -
                                (GIT: $679e74b$)
                          ($2025-06-10 18:02:51 +0200$)


 With contributions from (in alphabetic order):
[Max-Planck-Institut fuer Kohlenforschung]                               
  Daniel Aravena         : Magnetic Suceptibility                        
  Michael Atanasov       : Ab Initio Ligand Field Theory (pilot matlab implementation)
  Alexander A. Auer      : GIAO ZORA, VPT2 properties, NMR spectrum      
  Ute Becker             : All parallelization in ORCA, NUMFREQ, NUMCALC 
  Giovanni Bistoni       : ED, misc. LED, open-shell LED, HFLD           
  Dmytro Bykov           : pre 5.0 version of the SCF Hessian            
  Marcos Casanova-Páez   : Triplet and SCS-CIS(D). UHF-(DLPNO)-IP/EA/STEOM-CCSD. UHF-CVS-IP/STEOM-CCSD   
  Vijay G. Chilkuri      : MRCI spin determinant printing, contributions to CSF-ICE 
  Pauline Colinet        : FMM embedding                                 
  Dipayan Datta          : RHF DLPNO-CCSD density                        
  Achintya Kumar Dutta   : EOM-CC, STEOM-CC                              
  Nicolas Foglia         : Exact transition moments, OPA infrastructure, MCD improvements    
  Dmitry Ganyushin       : Spin-Orbit,Spin-Spin,Magnetic field MRCI      
  Miquel Garcia-Rates    : C-PCM and meta-GGA Hessian, CCSD/C-PCM, Gaussian charge scheme 
  Tiago L. C. Gouveia    : GS-ROHF, GS-ROCIS                             
  Yang Guo               : DLPNO-NEVPT2, F12-NEVPT2, CIM, IAO-localization        
  Andreas Hansen         : Spin unrestricted coupled pair/coupled cluster methods 
  Ingolf Harden          : AUTO-CI MPn and infrastructure                
  Benjamin Helmich-Paris : MC-RPA, TRAH-(SCF,CASSCF), AVAS, COSX integrals, SCF dyn. polar., MC-PDFT, srDFT 
  Lee Huntington         : MR-EOM, pCC                                   
  Robert Izsak           : Overlap fitted RIJCOSX, COSX-SCS-MP3, EOM     
  Riya Kayal             : Wick's Theorem for AUTO-CI, AUTO-CI UHF-CCSDT 
  Emily Kempfer          : AUTO-CI RHF CISDT and CCSDT, approximate NEVPT4
  Christian Kollmar      : KDIIS, OOCD, Brueckner-CCSD(T), CCSD density, CASPT2, CASPT2-K, improved NEVPT2 
  Axel Koslowski         : Symmetry handling                             
  Simone Kossmann        : meta-GGA functionals, TD-DFT gradient, OOMP2, (MP2 Hessian; deprecated post 5.0) 
  Lucas Lang             : DCDCAS, Hyperfine gauge corrections, ICE-SOC+SSC
  Marvin Lechner         : AUTO-CI (C++ implementation), FIC-MRCC        
  Spencer Leger          : CASSCF response                               
  Dagmar Lenk            : GEPOL surface, SMD, ORCA-2-JSON               
  Dimitrios Liakos       : Extrapolation schemes; Compound Job, Property file
  Dimitrios Manganas     : Further ROCIS development; embedding schemes. LFT, Crystal Embedding 
  Dimitrios Pantazis     : SARC Basis sets                               
  Anastasios Papadopoulos: AUTO-CI, single reference methods and gradients 
  Taras Petrenko         : pre 6.0 DFT Hessian and TD-DFT gradient,  ECA, NRVS 
  Petra Pikulova         : Analytic Raman intensities                    
  Peter Pinski           : DLPNO-MP2, DLPNO-MP2 Gradient                 
  Shashank Vittal Rao    : ES-AILFT, MagRelax                            
  Christoph Reimann      : Effective Core Potentials                     
  Marius Retegan         : Local ZFS, SOC                                
  Christoph Riplinger    : Optimizer, TS searches, QM/MM, DLPNO-CCSD(T), (RO)-DLPNO pert. Triples 
  Michael Roemelt        : Original ROCIS implementation, recursive CI coupling coefficients
  Masaaki Saitow         : Open-shell DLPNO-CCSD energy and density      
  Barbara Sandhoefer     : DKH picture change effects                    
  Yorick L. A. Schmerwitz: GMF and freeze-and-release deltaSCF, NEB S-IDPP initial path                    
  Kantharuban Sivalingam : CASSCF convergence/infrastructure, NEVPT2, NEVPT3, NEVPT4(SD), FIC-MRCI and CEPA variants
  Bernardo de Souza      : ESD, SOC TD-DFT                               
  Georgi L. Stoychev     : AutoAux, RI-MP2 NMR, DLPNO-MP2 response, X2C  
  Van Anh Tran           : RI-MP2 g-tensors                              
  Willem Van den Heuvel  : Paramagnetic NMR                              
  Zikuan Wang            : NOTCH, Electric field optimization            
  Frank Wennmohs         : Technical directorship and infrastructure     
  Hang Xu                : AUTO-CI-Response properties                   
                                                                         
[FACCTs GmbH]                                                            
  Markus Bursch, Nicolas Foglia, Miquel Garcia-Rates, Ingolf Harden, Hagen Neugebauer, Anastasios Papadopoulos, 
  Christoph Riplinger, Bernardo de Souza, Georgi L. Stoychev                                                    
                                                                 
  APM, various basis sets, CI-OPT, improved COSX, DLPNO-Multilevel,           
  DOCKER, DRACO, updates on ESD, Fragmentator, GOAT, IRC, LR-CPCM, L-BFGS, MBIS, meta-GGA TD-DFT gradient, ML-optimized integration grids, 
  MM, NACMEs, nearIR, NEB, NEB-TS, NL-DFT gradient (VV10), 2- and 3-layer-ONIOM, interface openCOSMO-RS, QMMM,   
  Crystal-QMMM, RESP, rigid body optimization, SF, symmetry and pop. for TD-DFT, various functionals, SOLVATOR                                   
                                                                         
[Other institutions]                                                     
  V. Asgeirsson          : NEB                                           
  Christoph Bannwarth    : sTDA-DFT, sTD-DFT, PBEh-3c, B97-3c, D3        
  Giovanni Bistoni       : ETS/NOCV, ADLD/ADEX, COVALED                  
  Martin Brehm           : Molecular dynamics                            
  Ronald Cardenas        : ETS/NOCV                                      
  Martina Colucci        : COVALED                                       
  Sebastian Ehlert       : rSCAN, r2SCAN, r2SCAN-3c, D4, dhf basis sets  
  Marvin Friede          : D4 for Fr, Ra, Ac-Lr                          
  Lars Goerigk           : TD-DFT with DH, B97 family of functionals     
  Stefan Grimme          : VdW corrections, initial TS optimization, DFT functionals, gCP, sTDA/sTD-DF 
  Waldemar Hujo          : DFT-NL                                        
  H. Jonsson             : NEB                                           
  Holger Kruse           : gCP                                           
  Marcel Mueller         : wB97X-3c, vDZP basis set                      
  Hagen Neugebauer       : wr2SCAN, Native XTB                           
  Gianluca Regni         : ADLD/ADEX                                     
  Tobias Risthaus        : pre 6.0 range-separated hybrid DFT and stability analysis
  Lukas Wittmann         : regularized MP2, r2SCAN double-hybrids, wr2SCAN        
                                                                         
We gratefully acknowledge several colleagues who have allowed us to      
interface, adapt or use parts of their codes:                            
  Ed Valeev, F. Pavosevic, A. Kumar             : LibInt (2-el integral package), F12 methods 
  Garnet Chan, S. Sharma, J. Yang, R. Olivares  : DMRG                   
  Ulf Ekstrom                                   : XCFun DFT Library      
  Mihaly Kallay                                 : mrcc  (arbitrary order and MRCC methods)
  Frank Weinhold                                : gennbo (NPA and NBO analysis)           
  Simon Mueller                                 : openCOSMO-RS                            
  Christopher J. Cramer and Donald G. Truhlar   : smd solvation model                     
  S Lehtola, MJT Oliveira, MAL Marques          : LibXC Library                           
  Liviu Ungur et al                             : ANISO software                          


 Your calculation uses the libint2 library for the computation of 2-el integrals
 For citations please refer to: http://libint.valeyev.net

 Your ORCA version has been built with support for libXC version: 7.0.0
 For citations please refer to: https://libxc.gitlab.io

 This ORCA versions uses:
   CBLAS   interface :  Fast vector & matrix operations
   LAPACKE interface :  Fast linear algebra routines
   SCALAPACK package :  Parallel linear algebra routines
   Shared memory     :  Shared parallel matrices
   BLAS/LAPACK       :  OpenBLAS 0.3.29  USE64BITINT DYNAMIC_ARCH NO_AFFINITY SkylakeX SINGLE_THREADED
        Core in use  :  SkylakeX
   Copyright (c) 2011-2014, The OpenBLAS Project


  ***********************************
  * Starting time: Wed Jan 28 11:55:44 2026
  * Host name:     bp1-compute183.data.bp.acrc.priv
  * Process ID:    3634202
  * Working dir.:  /user/work/kp22738/Diss/Orca/pyruvic_anion/dyson_orbitals/1_wat/15365123_s0_freq_1_wat
  ***********************************

NOTE: MaxCore=8000 MB was set to SCF,MP2,MDCI,CIPSI,MRCI,RASCI and CIS
      => If you want to overwrite this, your respective input block should be placed after the MaxCore statement
Using LibXC functional ID 471 : wB97X-D range-separated functional
[ 1]  J.-D. Chai and M. Head-Gordon.,  Phys. Chem. Chem. Phys. 10, 6615-6620 (2008)
Using LibXC functional ID 471 : wB97X-D range-separated functional
[ 1]  J.-D. Chai and M. Head-Gordon.,  Phys. Chem. Chem. Phys. 10, 6615-6620 (2008)
Your calculation utilizes LibXC
by S. Lehtola, C. Steigemann, M. J. T. Oliveira & M. A. L. Marques
Please cite in your paper:
Lehtola, S.; Steigemann, C.; Oliveira, M.J.T.; Marques, M. A. L. Software X, 7, (2018), 1.
   

================================================================================

----- Orbital basis set information -----
Your calculation utilizes the basis: aug-cc-pVDZ 
    H, B-Ne : Obtained from the ccRepo (grant-hill.group.shef.ac.uk/ccrepo) Feb. 2017
              R. A. Kendall, T. H. Dunning, Jr., R. J. Harrison, J. Chem. Phys. 96, 6796 (1992)
         He : Obtained from the ccRepo (grant-hill.group.shef.ac.uk/ccrepo) Feb. 2017
              D. E. Woon, T. H. Dunning, Jr., J. Chem. Phys. 100, 2975 (1994)
  Li-Be, Na : Obtained from the ccRepo (grant-hill.group.shef.ac.uk/ccrepo) Feb. 2017
              B. P. Prascher, D. E. Woon, K. A. Peterson, T. H. Dunning, Jr., A. K. Wilson, Theor. Chem. Acc. 128, 69 (2011)
         Mg : Obtained from the Peterson Research Group Website (tyr0.chem.wsu.edu/~kipeters) Feb. 2017
              B. P. Prascher, D. E. Woon, K. A. Peterson, T. H. Dunning, Jr., A. K. Wilson, Theor. Chem. Acc. 128, 69 (2011)
      Al-Ar : Obtained from the ccRepo (grant-hill.group.shef.ac.uk/ccrepo) Feb. 2017
              D. E. Woon, T. H. Dunning, Jr., J. Chem. Phys. 98, 1358 (1993)
      Sc-Zn : Obtained from the ccRepo (grant-hill.group.shef.ac.uk/ccrepo) Feb. 2017
              N. B. Balabanov, K. A. Peterson, J. Chem. Phys. 123, 064107 (2005)
              N. B. Balabanov, K. A. Peterson, J. Chem. Phys. 125, 074110 (2006)
      Ga-Kr : Obtained from the ccRepo (grant-hill.group.shef.ac.uk/ccrepo) Feb. 2017
              A. K. Wilson, D. E. Woon, K. A. Peterson, T. H. Dunning, Jr., J. Chem. Phys. 110, 7667 (1999)

================================================================================
                                        WARNINGS
                       Please study these warnings very carefully!
================================================================================


================================================================================
                                       INPUT FILE
================================================================================
NAME = s0_freq_1_wat.inp
|  1> ! aug-cc-pVDZ TightSCF DEFGRID3 Engrad ANFREQ
|  2> 
|  3> %PAL NPROCS 8 END
|  4> 
|  5> %maxcore 8000
|  6> 
|  7> %method
|  8> method dft
|  9> functional hyb_gga_xc_wb97x_d
| 10> end
| 11> 
| 12> * xyz 0 1
| 13>   C     -0.652599   -0.222620    0.000026
| 14>   C      0.704994    0.248880    0.000429
| 15>   C     -1.793407    0.759899   -0.000192
| 16>   H     -2.431432    0.606736    0.886085
| 17>   H     -2.431051    0.606780   -0.886751
| 18>   H     -1.418596    1.790709   -0.000080
| 19>   O     -0.862076   -1.491330    0.000100
| 20>   O      1.118778    1.427594    0.000705
| 21>   O      1.607966   -0.785033    0.000435
| 22>   H      1.006664   -1.561270   -0.000079
| 23>   O      3.879411    1.363126    0.003274
| 24>   H      3.889754    0.401977    0.002990
| 25>   H      2.909794    1.528853    0.002189
| 26> * 
| 27> 
| 28>                          ****END OF INPUT****
================================================================================

                     *******************************
                     * Energy+Gradient Calculation *
                     *******************************

---------------------------------
CARTESIAN COORDINATES (ANGSTROEM)
---------------------------------
  C     -0.652599   -0.222620    0.000026
  C      0.704994    0.248880    0.000429
  C     -1.793407    0.759899   -0.000192
  H     -2.431432    0.606736    0.886085
  H     -2.431051    0.606780   -0.886751
  H     -1.418596    1.790709   -0.000080
  O     -0.862076   -1.491330    0.000100
  O      1.118778    1.427594    0.000705
  O      1.607966   -0.785033    0.000435
  H      1.006664   -1.561270   -0.000079
  O      3.879411    1.363126    0.003274
  H      3.889754    0.401977    0.002990
  H      2.909794    1.528853    0.002189

----------------------------
CARTESIAN COORDINATES (A.U.)
----------------------------
  NO LB      ZA    FRAG     MASS         X           Y           Z
   0 C     6.0000    0    12.011   -1.233233   -0.420691    0.000049
   1 C     6.0000    0    12.011    1.332246    0.470315    0.000811
   2 C     6.0000    0    12.011   -3.389048    1.436001   -0.000363
   3 H     1.0000    0     1.008   -4.594741    1.146565    1.674458
   4 H     1.0000    0     1.008   -4.594021    1.146648   -1.675717
   5 H     1.0000    0     1.008   -2.680758    3.383950   -0.000151
   6 O     8.0000    0    15.999   -1.629088   -2.818205    0.000189
   7 O     8.0000    0    15.999    2.114184    2.697762    0.001332
   8 O     8.0000    0    15.999    3.038615   -1.483497    0.000822
   9 H     1.0000    0     1.008    1.902319   -2.950373   -0.000149
  10 O     8.0000    0    15.999    7.331024    2.575935    0.006187
  11 H     1.0000    0     1.008    7.350570    0.759626    0.005650
  12 H     1.0000    0     1.008    5.498714    2.889113    0.004137

--------------------------------
INTERNAL COORDINATES (ANGSTROEM)
--------------------------------
 C      0   0   0     0.000000000000     0.00000000     0.00000000
 C      1   0   0     1.437139925706     0.00000000     0.00000000
 C      1   2   0     1.505585110762   120.11096602     0.00000000
 H      3   1   2     1.102733751149   110.34349995   239.02059565
 H      3   1   2     1.102733947685   110.34331439   120.98865468
 H      3   1   2     1.096837524142   110.75493724     0.00000000
 O      1   2   3     1.285887119115   118.52794467   180.01221405
 O      2   1   3     1.249233352352   128.49588552     0.00000000
 O      2   1   3     1.372710648458   111.98005149   180.00648738
 H      9   2   1     0.981890136201   101.10483963     0.00000000
 O      8   2   1     2.761386840606   108.00571093   179.95852645
 H     11   8   2     0.961204691263    91.95428705     0.00000000
 H     11   8   2     0.983678678453     8.36151099   179.93208421

---------------------------
INTERNAL COORDINATES (A.U.)
---------------------------
 C      0   0   0     0.000000000000     0.00000000     0.00000000
 C      1   0   0     2.715800875708     0.00000000     0.00000000
 C      1   2   0     2.845143530650   120.11096602     0.00000000
 H      3   1   2     2.083864788303   110.34349995   239.02059565
 H      3   1   2     2.083865159703   110.34331439   120.98865468
 H      3   1   2     2.072722534036   110.75493724     0.00000000
 O      1   2   3     2.429974494264   118.52794467   180.01221405
 O      2   1   3     2.360708913305   128.49588552     0.00000000
 O      2   1   3     2.594047186702   111.98005149   180.00648738
 H      9   2   1     1.855503451019   101.10483963     0.00000000
 O      8   2   1     5.218264878560   108.00571093   179.95852645
 H     11   8   2     1.816413625127    91.95428705     0.00000000
 H     11   8   2     1.858883306054     8.36151099   179.93208421

---------------------
BASIS SET INFORMATION
---------------------
There are 3 groups of distinct atoms

 Group   1 Type C   : 18s5p2d contracted to 4s3p2d pattern {8811/311/11}
 Group   2 Type H   : 5s2p contracted to 3s2p pattern {311/11}
 Group   3 Type O   : 18s5p2d contracted to 4s3p2d pattern {8811/311/11}

Atom   0C    basis set group =>   1
Atom   1C    basis set group =>   1
Atom   2C    basis set group =>   1
Atom   3H    basis set group =>   2
Atom   4H    basis set group =>   2
Atom   5H    basis set group =>   2
Atom   6O    basis set group =>   3
Atom   7O    basis set group =>   3
Atom   8O    basis set group =>   3
Atom   9H    basis set group =>   2
Atom  10O    basis set group =>   3
Atom  11H    basis set group =>   2
Atom  12H    basis set group =>   2


           ************************************************************
           *        Program running with 8 parallel MPI-processes     *
           *              working on a common directory               *
           ************************************************************
------------------------------------------------------------------------------
                             ORCA STARTUP CALCULATIONS
------------------------------------------------------------------------------
------------------------------------------------------------------------------
                   ___                                                        
                  /   \      - P O W E R E D   B Y -                         
                 /     \                                                     
                 |  |  |   _    _      __       _____    __    __             
                 |  |  |  | |  | |    /  \     |  _  \  |  |  /  |          
                  \  \/   | |  | |   /    \    | | | |  |  | /  /          
                 / \  \   | |__| |  /  /\  \   | |_| |  |  |/  /          
                |  |  |   |  __  | /  /__\  \  |    /   |      \           
                |  |  |   | |  | | |   __   |  |    \   |  |\   \          
                \     /   | |  | | |  |  |  |  | |\  \  |  | \   \       
                 \___/    |_|  |_| |__|  |__|  |_| \__\ |__|  \__/        
                                                                              
                      - O R C A' S   B I G   F R I E N D -                    
                                      &                                       
                       - I N T E G R A L  F E E D E R -                       
                                                                              
 v1 FN, 2020, v2 2021, v3 2022-2024                                           
------------------------------------------------------------------------------


----------------------
SHARK INTEGRAL PACKAGE
----------------------

Number of atoms                             ...     13
Number of basis functions                   ...    257
Number of shells                            ...    135
Maximum angular momentum                    ...      2
Integral batch strategy                     ... SHARK/LIBINT Hybrid
RI-J (if used) integral strategy            ... SPLIT-RIJ (Revised 2003 algorithm where possible)
Printlevel                                  ...      1
Contraction scheme used                     ... PARTIAL GENERAL contraction
Prescreening option                         ... SCHWARTZ
   Thresh                                   ... 2.500e-11
   Tcut                                     ... 2.500e-12
   Tpresel                                  ... 2.500e-12 
Coulomb Range Separation                    ... NOT USED
Exchange Range Separation                   ... Long Range
   Mu parameter                             ... 2.000e-01
   Scaling (regular/separated)              ... 2.220e-01 7.780e-01
Robust (split-)RI terms used:
  metric    (central integrals)             ... YES
  density   (r.h.s.  integrals)             ... YES
  potential (l.h.s.  integrals)             ... YES
Multipole approximations                    ... NOT USED
Finite Nucleus Model                        ... NOT USED
CABS basis                                  ... NOT available
Auxiliary Coulomb fitting basis             ... NOT available
Auxiliary J/K fitting basis                 ... NOT available
Auxiliary Correlation fitting basis         ... NOT available
Auxiliary 'external' fitting basis          ... NOT available

Checking pre-screening integrals            ... done (  0.0 sec) Dimension = 135
Save PGC pre-screening integrals            ... done (  0.0 sec) Dimension = 135
Calculate PGC overlap integrals             ... done (  0.0 sec) Dimension = 93
Calculating pre-screening integrals (ORCA)  ... done (  0.1 sec) Dimension = 93
Shell pair information
Shell pair cut-off parameter TPreSel        ...   2.5e-12
Total number of shell pairs                 ...      9180
Shell pairs after pre-screening             ...      7532
Total number of primitive shell pairs       ...     13080
Primitive shell pairs kept                  ...      9874
          la=0 lb=0:   2711 shell pairs
          la=1 lb=0:   2626 shell pairs
          la=1 lb=1:    548 shell pairs
          la=2 lb=0:   1094 shell pairs
          la=2 lb=1:    450 shell pairs
          la=2 lb=2:    103 shell pairs

Checking whether 4 symmetric matrices of dimension 257 fit in memory
:Max Core in MB      =   8000.00
 MB in use           =      9.47
 MB left             =   7990.53
 MB needed           =      1.01
 Data fit in memory  = YES
Calculating Nuclear repulsion               ... done (  0.0 sec) ENN=    301.781966361163 Eh

Diagonalization of the overlap matrix:
Smallest eigenvalue                        ... 1.943e-05
Time for diagonalization                   ...    0.008 sec
Threshold for overlap eigenvalues          ... 1.000e-07
Number of eigenvalues below threshold      ... 0
Time for construction of square roots      ...    0.005 sec
Total time needed                          ...    0.014 sec

-------------------
DFT GRID GENERATION
-------------------

General Integration Accuracy     IntAcc      ... 4.959
Radial Grid Type                 RadialGrid  ... OptM3 with GC (2021)
Angular Grid (max. ang.)         AngularGrid ... 6 (Lebedev-590)
Angular grid pruning method      GridPruning ... 4 (adaptive)
Weight generation scheme         WeightScheme... mBecke (2022)
Basis function cutoff            BFCut       ... 1.0000e-11
Integration weight cutoff        WCut        ... 1.0000e-14
Partially contracted basis set               ... off
Rotationally invariant grid construction     ... off
Angular grids for H and He will be reduced by one unit
Diffuse basis detected: some atoms will have their outermost
                        angular grid increased by 1.

Total number of grid points                  ...   162629
Total number of batches                      ...     2548
Average number of points per batch           ...       63
Average number of grid points per atom       ...    12510

---------------------
SHARK GRID GENERATION
---------------------

General Integration Accuracy     IntAcc      ... 4.959
Radial Grid Type                 RadialGrid  ... OptM3 with GC (2021)
Angular Grid (max. ang.)         AngularGrid ... 6 (Lebedev-590)
Angular grid pruning method      GridPruning ... 4 (adaptive)
Weight generation scheme         WeightScheme... mBecke (2022)
Basis function cutoff            BFCut       ... 1.0000e-11
Integration weight cutoff        WCut        ... 1.0000e-14
Partially contracted basis set               ... off
Rotationally invariant grid construction     ... off
Angular grids for H and He will be reduced by one unit
Diffuse basis detected: some atoms will have their outermost
                        angular grid increased by 1.
Steep s-basis detected: some atoms will have their radial
                        grid points doubled.

Total number of grid points                  ...   266736
Total number of batches                      ...     4176
Average number of points per batch           ...       63
Average number of grid points per atom       ...    20518
Grids setup in   8.0 sec
Initializing property integral containers    ... done (  0.0 sec)

SHARK setup successfully completed in   8.2 seconds

Maximum memory used throughout the entire STARTUP-calculation: 61.0 MB


           ************************************************************
           *        Program running with 8 parallel MPI-processes     *
           *              working on a common directory               *
           ************************************************************
-------------------------------------------------------------------------------
                                 ORCA GUESS
                   Start orbitals & Density for SCF / CASSCF
-------------------------------------------------------------------------------

------------
SCF SETTINGS
------------
Hamiltonian:
 Density Functional     Method          .... DFT(GTOs)
  Functional kind                       .... Exchange-Correlation
  Functional name                       .... wB97X-D range-separated functional
  Functional family                     .... Hybrid GGA
  Functional refs                              
    [ 0] J.-D. Chai and M. Head-Gordon.,  Phys. Chem. Chem. Phys. 10, 6615-6620 (2008), doi: 10.1039/B810189B
  Fraction of HF Exchange (short range) .... 0.2220
  Fraction of HF Exchange ( int64 range )  .... 1.0000
  Range separation parameter mu         .... 0.2000
  Functional external parameters        .... 18
    Parameter  0 _cx0       =  7.779640e-01 : u^0 coefficient for exchange
    Parameter  1 _cx1       =  6.611600e-01 : u^1 coefficient for exchange
    Parameter  2 _cx2       =  5.745410e-01 : u^2 coefficient for exchange
    Parameter  3 _cx3       = -5.256710e+00 : u^3 coefficient for exchange
    Parameter  4 _cx4       =  1.163860e+01 : u^4 coefficient for exchange
    Parameter  5 _css0      =  1.000000e+00 : u^0 coefficient for same-spin correlation
    Parameter  6 _css1      = -6.905390e+00 : u^1 coefficient for same-spin correlation
    Parameter  7 _css2      =  3.133430e+01 : u^2 coefficient for same-spin correlation
    Parameter  8 _css3      = -5.105330e+01 : u^3 coefficient for same-spin correlation
    Parameter  9 _css4      =  2.644230e+01 : u^4 coefficient for same-spin correlation
    Parameter 10 _cos0      =  1.000000e+00 : u^0 coefficient for opposite-spin correlation
    Parameter 11 _cos1      =  1.794130e+00 : u^1 coefficient for opposite-spin correlation
    Parameter 12 _cos2      = -1.204770e+01 : u^2 coefficient for opposite-spin correlation
    Parameter 13 _cos3      =  1.408470e+01 : u^3 coefficient for opposite-spin correlation
    Parameter 14 _cos4      = -8.508090e+00 : u^4 coefficient for opposite-spin correlation
    Parameter 15 _alpha     =  1.000000e+00 : fraction of HF exchange
    Parameter 16 _beta      = -7.779640e-01 : fraction of short-range exchange
    Parameter 17 _omega     =  2.000000e-01 : range-separation constant
 Long-range corrected/Screened/Range-Separated Hybrid DFT is turned on
   Amount of maximum screened exact exchange              ....  0.777964
   Range separation parameter mu (erf(mu*r12)/r12)        ....  0.200000


General Settings:
 Integral files         IntName         .... s0_freq_1_wat
 Hartree-Fock type      HFTyp           .... RHF
 Total Charge           Charge          ....    0
 Multiplicity           Mult            ....    1
 Number of Electrons    NEL             ....   56
 Basis Dimension        Dim             ....  215
 Nuclear Repulsion      ENuc            ....    301.7819663612 Eh

Convergence Acceleration:
 AO-DIIS                CNVDIIS         .... on
   Start iteration      DIISMaxIt       ....    12
   Startup error        DIISStart       ....  0.200000
   # of expansion vecs  DIISMaxEq       ....     5
   Bias factor          DIISBfac        ....   1.050
   Max. coefficient     DIISMaxC        ....  10.000
 MO-DIIS                CNVKDIIS        .... off
 Trust-Rad. Augm. Hess. CNVTRAH         .... auto
   Auto Start mean grad. ratio tolernc. ....  1.125000
   Auto Start start iteration           ....    50
   Auto Start num. interpolation iter.  ....    10
   Max. Number of Micro iterations      ....    24
   Max. Number of Macro iterations      .... Maxiter - #DIIS iter
   Number of Davidson start vectors     ....     2
   Converg. threshold    (grad. norm)   ....   1.000e-05
   Grad. Scal. Fac. for Micro threshold ....   0.100
   Minimum threshold for Micro iter.    ....   1.000e-02
   NR start threshold (gradient norm)   ....   1.000e-04
   Initial trust radius                 ....   0.400
   Minimum AH scaling param. (alpha)    ....   1.000
   Maximum AH scaling param. (alpha)    .... 1000.000
   Quad. conv. algorithm                .... NR
   White noise on init. David. guess    .... on
   Maximum white noise                  ....   0.010
   Pseudo random numbers                .... off
   Inactive MOs                         .... canonical
   Orbital update algorithm             .... Taylor
   Preconditioner                       .... Diag
   Full preconditioner red. dimension   ....   250
 SOSCF                 CNVSOSCF           .... on
   Start iteration     SOSCFMaxIt         ....   150
   Startup grad/error  SOSCFStart         ....  0.003300
   Hessian update      SOSCFHessUp        .... L-BFGS
   Autom. constraints  SOSCFAutoConstrain .... off
 Level Shifting         CNVShift        .... on
   Level shift para.    LevelShift      ....    0.2500
   Turn off err/grad.   ShiftErr        ....    0.0010
 Zerner damping         CNVZerner       .... off
 Static damping         CNVDamp         .... on
   Fraction old density DampFac         ....    0.7000
   Max. Damping (<1)    DampMax         ....    0.9800
   Min. Damping (>=0)   DampMin         ....    0.0000
   Turn off err/grad.   DampErr         ....    0.1000

SCF Procedure:
 Maximum # iterations   MaxIter         ....   125
 SCF integral mode      SCFMode         .... Direct
   Integral package                     .... SHARK and LIBINT hybrid scheme
 Reset frequency        DirectResetFreq ....    20
 Integral Threshold     Thresh          ....  2.500e-11 Eh
 Primitive CutOff       TCut            ....  2.500e-12 Eh

Convergence Tolerance:
 Convergence Check Mode ConvCheckMode   .... Total+1el-Energy
 Convergence forced     ConvForced      .... 0
 Energy Change          TolE            ....  1.000e-08 Eh
 1-El. energy change                    ....  1.000e-05 Eh
 Orbital Gradient       TolG            ....  1.000e-05
 Orbital Rotation angle TolX            ....  1.000e-05
 DIIS Error             TolErr          ....  5.000e-07

------------------------------
INITIAL GUESS: MODEL POTENTIAL
------------------------------
Loading Hartree-Fock densities                     ... done
Calculating cut-offs                               ... done
Initializing the effective Hamiltonian             ... done
Setting up the integral package (SHARK)            ... done
Starting the Coulomb interaction                   ... done (   0.1 sec)
Making the grid                                    ... done (   0.2 sec)
Mapping shells                                     ... done
Starting the XC term evaluation                    ... done (   0.1 sec)
  promolecular density results
     # of electrons  =     55.996550597
     EX+EC           =    -36.067582889
Transforming the Hamiltonian                       ... done (   0.0 sec)
Diagonalizing the Hamiltonian                      ... done (   0.0 sec)
Back transforming the eigenvectors                 ... done (   0.0 sec)
Now organizing SCF variables                       ... done
                      ------------------
                      INITIAL GUESS DONE (   0.4 sec)
                      ------------------
             **** ENERGY FILE WAS UPDATED (s0_freq_1_wat.en.tmp) ****
Finished Guess after   0.9 sec
Maximum memory used throughout the entire GUESS-calculation: 12.7 MB


           ************************************************************
           *        Program running with 8 parallel MPI-processes     *
           *              working on a common directory               *
           ************************************************************

-------------------------------------------------------------------------------------------
                                      ORCA LEAN-SCF
                              memory conserving SCF solver
-------------------------------------------------------------------------------------------

----------------------------------------D-I-I-S--------------------------------------------
Iteration    Energy (Eh)           Delta-E    RMSDP     MaxDP     DIISErr   Damp  Time(sec)
-------------------------------------------------------------------------------------------
               ***  Starting incremental Fock matrix formation  ***
    1    -418.6459706415191704     0.00e+00  8.77e-03  1.60e-01  1.08e-01  0.700   5.4
    2    -418.6847114557751866    -3.87e-02  6.52e-03  1.17e-01  6.41e-02  0.700   5.4
                               ***Turning on AO-DIIS***
    3    -418.7057445502327937    -2.10e-02  3.41e-03  4.12e-02  4.11e-02  0.700   5.5
    4    -418.7187109965644822    -1.30e-02  7.81e-03  9.67e-02  2.88e-02  0.000   5.1
    5    -418.7476794009070318    -2.90e-02  9.72e-04  1.68e-02  3.51e-03  0.000   5.5
                              *** Initializing SOSCF ***
---------------------------------------S-O-S-C-F--------------------------------------
Iteration    Energy (Eh)           Delta-E    RMSDP     MaxDP     MaxGrad    Time(sec)
--------------------------------------------------------------------------------------
    6    -418.7478096132704195    -1.30e-04  3.97e-04  9.06e-03  3.04e-03     5.5
               *** Restarting incremental Fock matrix formation ***
    7    -418.7478438819055100    -3.43e-05  3.08e-04  6.76e-03  9.04e-04     5.6
    8    -418.7478508414205862    -6.96e-06  1.96e-04  3.90e-03  5.31e-04     5.1
    9    -418.7478593130015270    -8.47e-06  6.33e-05  1.20e-03  8.01e-05     4.3
   10    -418.7478594340382188    -1.21e-07  2.38e-05  3.24e-04  7.61e-05     5.1
   11    -418.7478595003709643    -6.63e-08  3.44e-05  5.37e-04  8.39e-06     4.0
   12    -418.7478595042396137    -3.87e-09  2.03e-05  3.58e-04  3.46e-06     4.5
                 **** Energy Check signals convergence ****

               *****************************************************
               *                     SUCCESS                       *
               *           SCF CONVERGED AFTER  12 CYCLES          *
               *****************************************************

             **** ENERGY FILE WAS UPDATED (s0_freq_1_wat.en.tmp) ****

----------------
TOTAL SCF ENERGY
----------------

Total Energy       :       -418.74785950546254 Eh          -11394.70855 eV

Components:
Nuclear Repulsion  :        301.78196636116252 Eh            8211.90479 eV
Electronic Energy  :       -720.52982586662506 Eh          -19606.61334 eV
One Electron Energy:      -1170.23154715821693 Eh          -31843.61930 eV
Two Electron Energy:        449.70172129159181 Eh           12237.00595 eV

Virial components:
Potential Energy   :       -834.72135771147384 Eh          -22713.92290 eV
Kinetic Energy     :        415.97349820601130 Eh           11319.21434 eV
Virial Ratio       :          2.00666956263179

DFT components:
N(Alpha)           :       28.000032254154 electrons
N(Beta)            :       28.000032254154 electrons
N(Total)           :       56.000064508308 electrons
E(XC)              :      -36.671260708274 Eh       

---------------
SCF CONVERGENCE
---------------

  Last Energy change         ...    3.8686e-09  Tolerance :   1.0000e-08
  Last MAX-Density change    ...    3.5833e-04  Tolerance :   1.0000e-07
  Last RMS-Density change    ...    2.0324e-05  Tolerance :   5.0000e-09
  Last DIIS Error            ...    3.0351e-03  Tolerance :   5.0000e-07
  Last Orbital Gradient      ...    3.4577e-06  Tolerance :   1.0000e-05
  Last Orbital Rotation      ...    1.0465e-05  Tolerance :   1.0000e-05


----------------
ORBITAL ENERGIES
----------------

  NO   OCC          E(Eh)            E(eV) 
   0   2.0000     -19.358318      -526.7666 
   1   2.0000     -19.345377      -526.4145 
   2   2.0000     -19.325967      -525.8863 
   3   2.0000     -19.235154      -523.4152 
   4   2.0000     -10.490372      -285.4575 
   5   2.0000     -10.466959      -284.8204 
   6   2.0000     -10.349467      -281.6233 
   7   2.0000      -1.255418       -34.1617 
   8   2.0000      -1.188708       -32.3464 
   9   2.0000      -1.163564       -31.6622 
  10   2.0000      -1.075388       -29.2628 
  11   2.0000      -0.914876       -24.8950 
  12   2.0000      -0.824979       -22.4488 
  13   2.0000      -0.720778       -19.6134 
  14   2.0000      -0.646687       -17.5973 
  15   2.0000      -0.621381       -16.9086 
  16   2.0000      -0.606303       -16.4983 
  17   2.0000      -0.579501       -15.7690 
  18   2.0000      -0.559384       -15.2216 
  19   2.0000      -0.548948       -14.9376 
  20   2.0000      -0.540994       -14.7212 
  21   2.0000      -0.512168       -13.9368 
  22   2.0000      -0.485482       -13.2106 
  23   2.0000      -0.471181       -12.8215 
  24   2.0000      -0.450512       -12.2591 
  25   2.0000      -0.436061       -11.8658 
  26   2.0000      -0.399686       -10.8760 
  27   2.0000      -0.365743        -9.9524 
  28   0.0000      -0.086017        -2.3406 
  29   0.0000       0.024631         0.6702 
  30   0.0000       0.042657         1.1607 
  31   0.0000       0.048252         1.3130 
  32   0.0000       0.055299         1.5048 
  33   0.0000       0.076095         2.0707 
  34   0.0000       0.078771         2.1435 
  35   0.0000       0.088154         2.3988 
  36   0.0000       0.101296         2.7564 
  37   0.0000       0.107483         2.9248 
  38   0.0000       0.108814         2.9610 
*Only the first 10 virtual orbitals were printed.

                    ********************************
                    * MULLIKEN POPULATION ANALYSIS *
                    ********************************

-----------------------
MULLIKEN ATOMIC CHARGES
-----------------------
   0 C :    0.091338
   1 C :    1.021459
   2 C :    0.560840
   3 H :    0.013277
   4 H :    0.013264
   5 H :   -0.201304
   6 O :   -0.651103
   7 O :   -0.573455
   8 O :   -0.499755
   9 H :    0.223199
  10 O :   -0.310845
  11 H :    0.116102
  12 H :    0.196983
Sum of atomic charges:   -0.0000000

--------------------------------
MULLIKEN REDUCED ORBITAL CHARGES
--------------------------------
  0 C s       :     3.241365  s :     3.241365
      pz      :     0.676039  p :     2.348721
      px      :     0.848378
      py      :     0.824303
      dz2     :     0.011560  d :     0.318576
      dxz     :     0.065151
      dyz     :     0.021924
      dx2y2   :     0.159283
      dxy     :     0.060658

  1 C s       :     3.047734  s :     3.047734
      pz      :     0.724995  p :     1.796138
      px      :     0.459778
      py      :     0.611365
      dz2     :    -0.002509  d :     0.134669
      dxz     :     0.007752
      dyz     :     0.053669
      dx2y2   :     0.077908
      dxy     :    -0.002152

  2 C s       :     3.011429  s :     3.011429
      pz      :     0.873598  p :     2.468210
      px      :     0.993154
      py      :     0.601457
      dz2     :    -0.008383  d :    -0.040479
      dxz     :    -0.018083
      dyz     :     0.003387
      dx2y2   :     0.007322
      dxy     :    -0.024721

  3 H s       :     0.990955  s :     0.990955
      pz      :     0.008017  p :    -0.004232
      px      :    -0.010219
      py      :    -0.002031

  4 H s       :     0.990974  s :     0.990974
      pz      :     0.008025  p :    -0.004238
      px      :    -0.010235
      py      :    -0.002028

  5 H s       :     1.186978  s :     1.186978
      pz      :    -0.010595  p :     0.014326
      px      :     0.025542
      py      :    -0.000622

  6 O s       :     4.129060  s :     4.129060
      pz      :     1.347294  p :     4.484277
      px      :     1.856072
      py      :     1.280911
      dz2     :     0.001398  d :     0.037766
      dxz     :     0.001162
      dyz     :     0.017645
      dx2y2   :     0.009291
      dxy     :     0.008271

  7 O s       :     4.052555  s :     4.052555
      pz      :     1.399648  p :     4.483868
      px      :     1.776358
      py      :     1.307863
      dz2     :     0.001973  d :     0.037032
      dxz     :     0.001762
      dyz     :     0.016683
      dx2y2   :     0.006964
      dxy     :     0.009650

  8 O s       :     3.981799  s :     3.981799
      pz      :     1.754763  p :     4.496917
      px      :     1.509487
      py      :     1.232667
      dz2     :     0.001072  d :     0.021039
      dxz     :     0.009619
      dyz     :     0.004371
      dx2y2   :     0.003874
      dxy     :     0.002103

  9 H s       :     0.703596  s :     0.703596
      pz      :     0.023840  p :     0.073205
      px      :     0.031578
      py      :     0.017788

 10 O s       :     3.809339  s :     3.809339
      pz      :     1.904003  p :     4.509878
      px      :     1.344645
      py      :     1.261230
      dz2     :    -0.001922  d :    -0.008371
      dxz     :     0.001828
      dyz     :     0.001485
      dx2y2   :    -0.010906
      dxy     :     0.001144

 11 H s       :     0.780700  s :     0.780700
      pz      :     0.047260  p :     0.103198
      px      :     0.024338
      py      :     0.031600

 12 H s       :     0.739652  s :     0.739652
      pz      :     0.045467  p :     0.063365
      px      :     0.003133
      py      :     0.014765



                     *******************************
                     * LOEWDIN POPULATION ANALYSIS *
                     *******************************

----------------------
LOEWDIN ATOMIC CHARGES
----------------------
   0 C :   -0.240872
   1 C :   -0.309944
   2 C :    0.203559
   3 H :    0.016686
   4 H :    0.016681
   5 H :   -0.005107
   6 O :    0.130279
   7 O :    0.152458
   8 O :    0.271582
   9 H :   -0.091472
  10 O :    0.193633
  11 H :   -0.129411
  12 H :   -0.208073

-------------------------------
LOEWDIN REDUCED ORBITAL CHARGES
-------------------------------
  0 C s       :     2.606252  s :     2.606252
      pz      :     0.586991  p :     2.467202
      px      :     0.952126
      py      :     0.928085
      dz2     :     0.100498  d :     1.167418
      dxz     :     0.127300
      dyz     :     0.165109
      dx2y2   :     0.369778
      dxy     :     0.404733

  1 C s       :     2.572638  s :     2.572638
      pz      :     0.636355  p :     2.427021
      px      :     0.901659
      py      :     0.889008
      dz2     :     0.118587  d :     1.310285
      dxz     :     0.100899
      dyz     :     0.237531
      dx2y2   :     0.406810
      dxy     :     0.446459

  2 C s       :     2.606308  s :     2.606308
      pz      :     0.944305  p :     2.801075
      px      :     0.915620
      py      :     0.941150
      dz2     :     0.066762  d :     0.389058
      dxz     :     0.087660
      dyz     :     0.028430
      dx2y2   :     0.108634
      dxy     :     0.097573

  3 H s       :     0.712321  s :     0.712321
      pz      :     0.115838  p :     0.270993
      px      :     0.086346
      py      :     0.068810

  4 H s       :     0.712325  s :     0.712325
      pz      :     0.115863  p :     0.270994
      px      :     0.086322
      py      :     0.068809

  5 H s       :     0.714804  s :     0.714804
      pz      :     0.072965  p :     0.290303
      px      :     0.090547
      py      :     0.126792

  6 O s       :     3.394775  s :     3.394775
      pz      :     1.227661  p :     4.303560
      px      :     1.656733
      py      :     1.419166
      dz2     :     0.020676  d :     0.171386
      dxz     :     0.001379
      dyz     :     0.027197
      dx2y2   :     0.061942
      dxy     :     0.060192

  7 O s       :     3.361037  s :     3.361037
      pz      :     1.281606  p :     4.313129
      px      :     1.589893
      py      :     1.441630
      dz2     :     0.021393  d :     0.173376
      dxz     :     0.003836
      dyz     :     0.030485
      dx2y2   :     0.060231
      dxy     :     0.057431

  8 O s       :     3.245510  s :     3.245510
      pz      :     1.552559  p :     4.304835
      px      :     1.477964
      py      :     1.274312
      dz2     :     0.024118  d :     0.178072
      dxz     :     0.014064
      dyz     :     0.017391
      dx2y2   :     0.045427
      dxy     :     0.077073

  9 H s       :     0.582073  s :     0.582073
      pz      :     0.110541  p :     0.509398
      px      :     0.230174
      py      :     0.168683

 10 O s       :     3.263729  s :     3.263729
      pz      :     1.709012  p :     4.489272
      px      :     1.421493
      py      :     1.358767
      dz2     :     0.010595  d :     0.053366
      dxz     :     0.000381
      dyz     :     0.000282
      dx2y2   :     0.040016
      dxy     :     0.002091

 11 H s       :     0.636248  s :     0.636248
      pz      :     0.147235  p :     0.493163
      px      :     0.118982
      py      :     0.226946

 12 H s       :     0.606874  s :     0.606874
      pz      :     0.147981  p :     0.601199
      px      :     0.339757
      py      :     0.113462



                      *****************************
                      * MAYER POPULATION ANALYSIS *
                      *****************************

  NA   - Mulliken gross atomic population
  ZA   - Total nuclear charge
  QA   - Mulliken gross atomic charge
  VA   - Mayer's total valence
  BVA  - Mayer's bonded valence
  FA   - Mayer's free valence

  ATOM       NA         ZA         QA         VA         BVA        FA
  0 C      5.9087     6.0000     0.0913     3.9279     3.9279    -0.0000
  1 C      4.9785     6.0000     1.0215     2.6292     2.6292    -0.0000
  2 C      5.4392     6.0000     0.5608     3.8444     3.8444    -0.0000
  3 H      0.9867     1.0000     0.0133     0.8880     0.8880     0.0000
  4 H      0.9867     1.0000     0.0133     0.8879     0.8879    -0.0000
  5 H      1.2013     1.0000    -0.2013     0.8777     0.8777    -0.0000
  6 O      8.6511     8.0000    -0.6511     1.7076     1.7076     0.0000
  7 O      8.5735     8.0000    -0.5735     1.8309     1.8309    -0.0000
  8 O      8.4998     8.0000    -0.4998     1.8847     1.8847    -0.0000
  9 H      0.7768     1.0000     0.2232     0.9802     0.9802    -0.0000
 10 O      8.3108     8.0000    -0.3108     1.9258     1.9258    -0.0000
 11 H      0.8839     1.0000     0.1161     1.0248     1.0248    -0.0000
 12 H      0.8030     1.0000     0.1970     0.9351     0.9351     0.0000

  Mayer bond orders larger than 0.100000
B(  0-C ,  1-C ) :   0.5474 B(  0-C ,  2-C ) :   1.3968 B(  0-C ,  3-H ) :   0.1413 
B(  0-C ,  4-H ) :   0.1412 B(  0-C ,  5-H ) :   0.2509 B(  0-C ,  6-O ) :   1.4751 
B(  0-C ,  7-O ) :  -0.1267 B(  0-C ,  8-O ) :   0.1403 B(  1-C ,  2-C ) :  -0.1326 
B(  1-C ,  5-H ) :  -0.1788 B(  1-C ,  7-O ) :   1.7050 B(  1-C ,  8-O ) :   0.7585 
B(  2-C ,  3-H ) :   0.8523 B(  2-C ,  4-H ) :   0.8523 B(  2-C ,  5-H ) :   0.8540 
B(  6-O ,  9-H ) :   0.1103 B(  8-O ,  9-H ) :   0.9301 B( 10-O , 11-H ) :   1.0495 
B( 10-O , 12-H ) :   0.9083 

-------
TIMINGS
-------

Total SCF time: 0 days 0 hours 1 min 6 sec 

Total time                  ....      66.089 sec
Sum of individual times     ....      62.389 sec  ( 94.4%)

SCF preparation             ....       0.976 sec  (  1.5%)
Fock matrix formation       ....      59.677 sec  ( 90.3%)
  Startup                   ....       0.071 sec  (  0.1% of F)
  Coulomb+Exchange Fock     ....      54.464 sec  ( 91.3% of F)
  XC integration            ....       8.535 sec  ( 14.3% of F)
    XC Preparation          ....       0.000 sec  (  0.0% of XC)
    Basis function eval.    ....       2.587 sec  ( 30.3% of XC)
    Density eval.           ....       1.340 sec  ( 15.7% of XC)
    XC-Functional eval.     ....       0.759 sec  (  8.9% of XC)
    XC-Potential eval.      ....       2.246 sec  ( 26.3% of XC)
Diagonalization             ....       0.000 sec  (  0.0%)
Density matrix formation    ....       0.298 sec  (  0.5%)
Total Energy calculation    ....       0.028 sec  (  0.0%)
Population analysis         ....       0.432 sec  (  0.7%)
Orbital Transformation      ....       0.049 sec  (  0.1%)
Orbital Orthonormalization  ....       0.000 sec  (  0.0%)
DIIS solution               ....       0.185 sec  (  0.3%)
SOSCF solution              ....       0.742 sec  (  1.1%)
Finished LeanSCF after  66.1 sec

Maximum memory used throughout the entire LEANSCF-calculation: 14.8 MB


           ************************************************************
           *        Program running with 8 parallel MPI-processes     *
           *              working on a common directory               *
           ************************************************************

------------------------------------------------------------------------------
                         ORCA PROPERTY INTEGRAL CALCULATIONS
------------------------------------------------------------------------------

GBWName                                   ... s0_freq_1_wat.gbw
Number of atoms                           ...     13
Number of basis functions                 ...    257
Max core memory                           ...   8000 MB

Dipole integrals                          ... YES
Quadrupole integrals                      ...  NO
Linear momentum integrals                 ...  NO
Angular momentum integrals                ...  NO
Higher moments length integrals           ...  NO
Higher moments velocity integrals         ...  NO
Kinetic energy integrals                  ...  NO
GIAO right hand sides                     ...  NO
GIAO dipole derivative integrals          ...  NO
SOC integrals                             ...  NO
EPR diamagnetic integrals (GIAO)          ...  NO
EPR gauge integrals                       ...  NO
Field gradient integrals                  ...  NO (   0 nuclei)
Spin-dipole/Fermi contact integrals       ...  NO (   0 nuclei)
Contact density integrals                 ...  NO (   0 nuclei)
Nucleus-orbit integrals                   ...  NO (   0 nuclei)
Geometric perturbations                   ... YES (  13 nuclei)

Choice of electric origin   ... Center of mass
Position of electric origin ... (  1.2920,  0.3754,  0.0014) 
Choice of magnetic origin   ... GIAO
Position of magnetic origin ... (  0.0000,  0.0000,  0.0000) 

Calculating integrals                     ... Electric Dipole (Length)     done (  0.0 sec)
Calculating integrals                     ... Geometrical perturbation right hand sides

-----------------------
GEOMETRIC PERTURBATIONS (13 nuclei)
-----------------------

MaxCore                            ...   8000 MB
Number of batches                  ...      1

BATCH   0: Atoms    0 -   12 ( 39 perturbations)
   => H(core) and overlap derivative integrals     ... done (     0.2 sec)
   => Making and storing internal U-coefficients   ... done (     0.0 sec)
   => Exact two electron derivative integrals      ... done (    34.5 sec)
   => Exact two-electron response operators        ... done (    86.6 sec)
   => XC derivative integrals                      ... done (    47.3 sec)
   => XC response operators                        ... done (    11.8 sec)
   => Completing and storing right hand sides      ... done (     0.0 sec)
   => Total time for right hand sides = 146.5 sec

  geometrical perturbations done (146.5 sec)

Property integrals calculated in 146.5 sec

Maximum memory used throughout the entire PROPINT-calculation: 60.6 MB

-------------------------   --------------------
FINAL SINGLE POINT ENERGY      -418.747859505463
-------------------------   --------------------



           ************************************************************
           *        Program running with 8 parallel MPI-processes     *
           *              working on a common directory               *
           ************************************************************
------------------------------------------------------------------------------
                         ORCA SCF GRADIENT CALCULATION
------------------------------------------------------------------------------

Nuc. rep. gradient        (SHARK) ... done (  0.0 sec)
HCore & Overlap gradient  (SHARK) ... done (  0.1 sec)
Two-electron gradient     (SHARK) ... done ( 18.5 sec)
XC gradient                       ... done (  3.4 sec)

------------------
CARTESIAN GRADIENT
------------------

   1   C   :    0.088638065    0.081262517   -0.000012536
   2   C   :   -0.114896450   -0.036348198   -0.000014815
   3   C   :   -0.003149241   -0.003249309    0.000004482
   4   H   :   -0.003499628    0.002301278    0.002183926
   5   H   :   -0.003497300    0.002299117   -0.002185099
   6   H   :    0.000315600    0.001594578    0.000001019
   7   O   :   -0.021959141   -0.084558314    0.000017643
   8   O   :    0.041457148    0.054426466    0.000015245
   9   O   :    0.032272088   -0.022218682    0.000013564
  10   H   :   -0.007957124    0.005288438   -0.000016832
  11   O   :    0.014775865    0.000930540    0.000018513
  12   H   :   -0.004958527    0.000294375   -0.000004721
  13   H   :   -0.017541355   -0.002022805   -0.000020389

Difference to translation invariance:
           :   -0.0000000000    0.0000000000    0.0000000000

Difference to rotation invariance:
           :    0.0000000878   -0.0000007641    0.0000505318

Norm of the Cartesian gradient     ...    0.2086762059
RMS gradient                       ...    0.0334149356
MAX gradient                       ...    0.1148964504

-------
TIMINGS
-------

Total SCF gradient time     ....       21.953 sec

Densities                   ....       0.017 sec  (  0.1%)
One electron gradient       ....       0.075 sec  (  0.3%)
Two electron gradient       ....      18.461 sec  ( 84.1%)
XC gradient                 ....       3.400 sec  ( 15.5%)

Maximum memory used throughout the entire SCFGRAD-calculation: 28.9 MB


           ************************************************************
           *        Program running with 8 parallel MPI-processes     *
           *              working on a common directory               *
           ************************************************************
------------------------------------------------------------------------------
                            ORCA SCF RESPONSE CALCULATION
------------------------------------------------------------------------------

GBWName                                 ... s0_freq_1_wat.gbw
Number of atoms                         ...     13
Number of basis functions               ...    257
Max core memory                         ...   8000 MB

Electric field perturbation             ...  NO
Quadrupolar field perturbation          ...  NO
Magnetic field perturbation (no GIAO)   ...  NO
Magnetic field perturbation (with GIAO) ...  NO
Linear momentum (velocity) perturbation ...  NO
Spin-orbit coupling perturbation        ...  NO
Choice of electric origin               ... Center of mass
Position of electric origin             ...     1.292018     0.375400     0.001421
Choice of magnetic origin               ... GIAO
Position of magnetic origin             ...     0.000000     0.000000     0.000000
Nuclear geometric perturbations         ... YES (  39 perturbations)
Nucleus-orbit perturbations             ...  NO (   0 perturbations)
Spin-dipole/Fermi contact perturbations ...  NO (   0 perturbations)

Total number of real perturbations      ...     39
Total number of imaginary perturbations ...      0
Total number of triplet perturbations   ...      0
Total number of SOC perturbations       ...      0

Using XC Grid                  ... (s0_freq_1_wat.grid_cpscf.tmp) 
Recalculating density on grid  ... (s0_freq_1_wat.grho_cpscf0.tmp) done
Calculating the xc-kernel      ... (s0_freq_1_wat.fxc_cpscf0.tmp) done

                                **********************
                                * REAL PERTURBATIONS *
                                **********************



-------------------
SHARK CP-SCF DRIVER
-------------------

Dimension of the orbital basis          ...    215
Dimension of the CPSCF-problem          ...   5236
Number of operators                     ...      1
Max. number of iterations               ...    128
Convergence Tolerance                   ... 1.0e-04
Number of perturbations                 ...     39
Perturbation type                       ... REAL

----------------------------
POPLE LINEAR EQUATION SOLVER
----------------------------

  ITERATION   0:   ||err||_max =   3.6364e-01 ( 110.4 sec   0/ 39 done)
  ITERATION   1:   ||err||_max =   7.0604e-02 ( 121.5 sec   0/ 39 done)
  ITERATION   2:   ||err||_max =   2.4373e-02 ( 120.0 sec   0/ 39 done)
  ITERATION   3:   ||err||_max =   9.0698e-03 ( 116.5 sec   0/ 39 done)
  ITERATION   4:   ||err||_max =   3.4391e-03 ( 114.5 sec   0/ 39 done)
  ITERATION   5:   ||err||_max =   1.2425e-03 ( 116.3 sec   2/ 39 done)
  ITERATION   6:   ||err||_max =   5.4198e-04 ( 107.1 sec  11/ 39 done)
  ITERATION   7:   ||err||_max =   1.9089e-04 (  76.3 sec  29/ 39 done)
  ITERATION   8:   ||err||_max =   8.7954e-05 (  25.1 sec  39/ 39 done)

CP-SCF equations solved in 907.7 sec
Response densities calculated in   0.0 sec

Maximum memory used throughout the entire SCFRESP-calculation: 69.3 MB


           ************************************************************
           *        Program running with 8 parallel MPI-processes     *
           *              working on a common directory               *
           ************************************************************

------------------------------------------------------------------------------
                              ORCA PROPERTY CALCULATIONS
------------------------------------------------------------------------------

GBWName                                 ... s0_freq_1_wat.gbw
Number of atoms                         ...     13
Number of basis functions               ...    257
Max core memory                         ...   8000 MB

Electric properties:
Dipole moment                           ... YES
Quadrupole moment                       ...  NO
Static polarizability (Dipole/Dipole)   ...  NO
Static polarizability (Dipole/Quad.)    ...  NO
Static polarizability (Quad./Quad.)     ...  NO
Static polarizability (Velocity)        ...  NO
Static hyperpolarizability              ...  NO

Atomic electric properties:
Dipole moment                           ...  NO
Quadrupole moment                       ...  NO
Static polarizability                   ...  NO

Choice of electric origin               ... Center of mass
Position of electric origin             ...     1.292018     0.375400     0.001421

General magnetic properties:
Magnetizability                         ...  NO

EPR properties:
g-Tensor (aka g-matrix)                 ...  NO
Zero-Field splitting spin-orbit         ...  NO
Zero-field splitting spin-spin          ...  NO
Hyperfine couplings                     ...  NO (   0 nuclei)
Quadrupole couplings                    ...  NO (   0 nuclei)
Contact density                         ...  NO (   0 nuclei)

NMR properties:
Chemical shifts                         ...  NO (   0 nuclei)
Spin-rotation constants                 ...  NO (   0 nuclei)
Spin-spin couplings                     ...  NO (   0 nuclei,    0 pairs)

Choice of magnetic origin               ... GIAO
Position of magnetic origin             ...     0.000000     0.000000     0.000000

Properties with geometric perturbations:
SCF Hessian                             ... YES
IR spectrum                             ... YES
VCD spectrum                            ...  NO
X-ray spectroscopy properties:
SCF XES/XAS/RIXS spectra                ...  NO

SCF SOC stabilization energy            ...  NO
Diagonal Born-Oppenheimer correction    ...  NO

-------------
DIPOLE MOMENT
-------------

Method             : SCF
Type of density    : Electron Density
Multiplicity       :   1
Irrep              :   0
Energy             :  -418.7478595054625430 Eh
Basis              : AO
                                X                 Y                 Z
Electronic contribution:      0.213502669      -2.717799485      -0.001694518
Nuclear contribution   :     -2.373276644       2.042830617      -0.000125815
                        -----------------------------------------
Total Dipole Moment    :     -2.159773974      -0.674968868      -0.001820333
                        -----------------------------------------
Magnitude (a.u.)       :      2.262788083
Magnitude (Debye)      :      5.751550223



--------------------
Rotational spectrum 
--------------------
 
Rotational constants in cm-1:             0.175530             0.044258             0.035582 
Rotational constants in MHz :          5262.252979          1326.829936          1066.735018 

Dipole components along the rotational axes: 
x,y,z [a.u.] :    -2.262744    -0.014052    -0.000567 
x,y,z [Debye]:    -5.751439    -0.035717    -0.001442 

 

Dipole moment calculation done in   0.0 sec 

-----------
SCF HESSIAN
-----------

Occupied/Occupied contributions to the Hessian:
   => Occupied/Occupied contributions              ... done (  0.0 sec)
Perturbed density contributions to the Hessian:
   => Perturbed density contributions              ... done (  0.0 sec)
Explicit contributions to the Hessian:
   => Nuclear repulsion Hessian                    ... done (  0.0 sec)
   => HCore and overlap Hessian                    ... done (  1.4 sec)
   => Exact two electron integral Hessian          ... done (166.9 sec)
   => XC-Hessian                                   ... done ( 20.8 sec)
   => Explicit contributions done
Dipole derivatives                                 ... done (  0.0 sec)
Mass weighting the Hessian           ... done
Calculating normal modes             ... done
Scaling frequencies                  ... done

-----------------------
VIBRATIONAL FREQUENCIES
-----------------------

Scaling factor for frequencies =  1.000000000  (already applied!)

     0:       0.00 cm**-1
     1:       0.00 cm**-1
     2:       0.00 cm**-1
     3:       0.00 cm**-1
     4:       0.00 cm**-1
     5:       0.00 cm**-1
     6:     -48.18 cm**-1  ***imaginary mode***
     7:      96.02 cm**-1
     8:     102.63 cm**-1
     9:     155.57 cm**-1
    10:     187.16 cm**-1
    11:     201.97 cm**-1
    12:     339.02 cm**-1
    13:     435.68 cm**-1
    14:     459.52 cm**-1
    15:     533.00 cm**-1
    16:     572.61 cm**-1
    17:     627.93 cm**-1
    18:     729.43 cm**-1
    19:     764.39 cm**-1
    20:     799.02 cm**-1
    21:     806.84 cm**-1
    22:    1004.07 cm**-1
    23:    1037.00 cm**-1
    24:    1119.30 cm**-1
    25:    1345.76 cm**-1
    26:    1384.16 cm**-1
    27:    1411.49 cm**-1
    28:    1454.87 cm**-1
    29:    1459.87 cm**-1
    30:    1497.29 cm**-1
    31:    1707.72 cm**-1
    32:    1724.85 cm**-1
    33:    3033.20 cm**-1
    34:    3102.94 cm**-1
    35:    3158.59 cm**-1
    36:    3563.73 cm**-1
    37:    3579.90 cm**-1
    38:    3930.50 cm**-1


------------
NORMAL MODES
------------

These modes are the Cartesian displacements weighted by the diagonal matrix
M(i,i)=1/sqrt(m[i]) where m[i] is the mass of the displaced atom
Thus, these vectors are normalized but *not* orthogonal

                  0          1          2          3          4          5    
      0       0.000000   0.000000   0.000000   0.000000   0.000000   0.000000
      1       0.000000   0.000000   0.000000   0.000000   0.000000   0.000000
      2       0.000000   0.000000   0.000000   0.000000   0.000000   0.000000
      3       0.000000   0.000000   0.000000   0.000000   0.000000   0.000000
      4       0.000000   0.000000   0.000000   0.000000   0.000000   0.000000
      5       0.000000   0.000000   0.000000   0.000000   0.000000   0.000000
      6       0.000000   0.000000   0.000000   0.000000   0.000000   0.000000
      7       0.000000   0.000000   0.000000   0.000000   0.000000   0.000000
      8       0.000000   0.000000   0.000000   0.000000   0.000000   0.000000
      9       0.000000   0.000000   0.000000   0.000000   0.000000   0.000000
     10       0.000000   0.000000   0.000000   0.000000   0.000000   0.000000
     11       0.000000   0.000000   0.000000   0.000000   0.000000   0.000000
     12       0.000000   0.000000   0.000000   0.000000   0.000000   0.000000
     13       0.000000   0.000000   0.000000   0.000000   0.000000   0.000000
     14       0.000000   0.000000   0.000000   0.000000   0.000000   0.000000
     15       0.000000   0.000000   0.000000   0.000000   0.000000   0.000000
     16       0.000000   0.000000   0.000000   0.000000   0.000000   0.000000
     17       0.000000   0.000000   0.000000   0.000000   0.000000   0.000000
     18       0.000000   0.000000   0.000000   0.000000   0.000000   0.000000
     19       0.000000   0.000000   0.000000   0.000000   0.000000   0.000000
     20       0.000000   0.000000   0.000000   0.000000   0.000000   0.000000
     21       0.000000   0.000000   0.000000   0.000000   0.000000   0.000000
     22       0.000000   0.000000   0.000000   0.000000   0.000000   0.000000
     23       0.000000   0.000000   0.000000   0.000000   0.000000   0.000000
     24       0.000000   0.000000   0.000000   0.000000   0.000000   0.000000
     25       0.000000   0.000000   0.000000   0.000000   0.000000   0.000000
     26       0.000000   0.000000   0.000000   0.000000   0.000000   0.000000
     27       0.000000   0.000000   0.000000   0.000000   0.000000   0.000000
     28       0.000000   0.000000   0.000000   0.000000   0.000000   0.000000
     29       0.000000   0.000000   0.000000   0.000000   0.000000   0.000000
     30       0.000000   0.000000   0.000000   0.000000   0.000000   0.000000
     31       0.000000   0.000000   0.000000   0.000000   0.000000   0.000000
     32       0.000000   0.000000   0.000000   0.000000   0.000000   0.000000
     33       0.000000   0.000000   0.000000   0.000000   0.000000   0.000000
     34       0.000000   0.000000   0.000000   0.000000   0.000000   0.000000
     35       0.000000   0.000000   0.000000   0.000000   0.000000   0.000000
     36       0.000000   0.000000   0.000000   0.000000   0.000000   0.000000
     37       0.000000   0.000000   0.000000   0.000000   0.000000   0.000000
     38       0.000000   0.000000   0.000000   0.000000   0.000000   0.000000
                  6          7          8          9         10         11    
      0      -0.000018   0.047319   0.000012   0.000015   0.000133   0.086814
      1      -0.000015  -0.002541  -0.000005   0.000008   0.000036   0.010404
      2      -0.107445   0.000093   0.004983  -0.029627  -0.049412   0.000158
      3      -0.000134  -0.015431  -0.000019   0.000001   0.000139   0.090018
      4       0.000049   0.188410   0.000083   0.000023  -0.000054  -0.057684
      5       0.230144  -0.000097   0.016982  -0.004290  -0.028938   0.000214
      6      -0.000067  -0.081011  -0.000039  -0.000034   0.000209   0.203468
      7      -0.000080  -0.148095  -0.000068  -0.000024   0.000163   0.138290
      8      -0.157113  -0.000142  -0.014531   0.081190   0.149839  -0.000276
      9       0.186634  -0.059077  -0.352500   0.047924   0.073378   0.182288
     10       0.205930  -0.226271  -0.365461  -0.056051  -0.115771   0.221054
     11       0.019068   0.001794  -0.337987   0.106105   0.182166  -0.001024
     12      -0.186822  -0.060939   0.352577  -0.047995  -0.073019   0.182598
     13      -0.206187  -0.228690   0.365295   0.055967   0.116267   0.220496
     14       0.018978  -0.000277  -0.337821   0.106088   0.182143   0.000344
     15      -0.000080  -0.216199  -0.000191  -0.000074   0.000333   0.340475
     16      -0.000047  -0.098314  -0.000067  -0.000014   0.000106   0.087235
     17      -0.424812  -0.001802   0.499878   0.126330   0.250215  -0.000488
     18       0.000048   0.179643   0.000075   0.000050   0.000104   0.031721
     19      -0.000031  -0.021447  -0.000014  -0.000002   0.000038   0.021738
     20      -0.196075   0.000312   0.005962  -0.087103  -0.134432   0.000290
     21      -0.000225  -0.111565  -0.000065   0.000012   0.000120   0.035704
     22       0.000055   0.219686   0.000097   0.000031  -0.000013  -0.041315
     23       0.331899  -0.000278   0.020608  -0.049692  -0.171714   0.000640
     24      -0.000083   0.089245   0.000028  -0.000018   0.000049   0.090882
     25       0.000086   0.266840   0.000118   0.000005  -0.000113  -0.052954
     26       0.259123   0.000005   0.025842   0.082348   0.187692  -0.000396
     27      -0.000002   0.166631   0.000066  -0.000016  -0.000015   0.084956
     28       0.000106   0.208603   0.000093   0.000012  -0.000095  -0.048587
     29       0.124789   0.000237   0.019825   0.061782   0.204301  -0.000542
     30       0.000401  -0.087630   0.000005   0.000032  -0.000644  -0.436327
     31      -0.000061  -0.430594  -0.000182  -0.000015  -0.000067  -0.026029
     32      -0.315907   0.000091  -0.043991  -0.050398   0.053787  -0.000541
     33       0.000479  -0.301773  -0.000102  -0.001074   0.000228  -0.486967
     34      -0.000011  -0.433271  -0.000186  -0.000316   0.000197  -0.025609
     35      -0.483860  -0.000374  -0.036859   0.931036  -0.808293   0.001440
     36       0.000166  -0.049483   0.000006   0.000236  -0.000744  -0.422153
     37      -0.000021  -0.219516  -0.000090   0.000000   0.000029   0.025309
     38      -0.098608   0.000079  -0.029258  -0.230523   0.164034  -0.000773
                 12         13         14         15         16         17    
      0       0.036484   0.003222  -0.028199  -0.000127  -0.048939  -0.171072
      1       0.148532   0.000415   0.025576  -0.000171  -0.236286  -0.053638
      2       0.000030   0.000001  -0.000058   0.385723  -0.000708  -0.000050
      3       0.086265   0.006272   0.068407  -0.000062  -0.029000  -0.107542
      4       0.039780  -0.002095  -0.069466   0.000122   0.217383  -0.037708
      5       0.000070  -0.000003  -0.000002   0.247846  -0.000344  -0.000027
      6      -0.219868  -0.003494  -0.156027   0.000114   0.178711  -0.231683
      7      -0.141797  -0.007589  -0.047277  -0.000096  -0.165187   0.204889
      8      -0.000092  -0.000007   0.000004  -0.026497   0.000063  -0.000059
      9      -0.165271  -0.001871  -0.120184  -0.350664   0.136238  -0.275911
     10      -0.367030  -0.015637  -0.208951   0.340687   0.001490   0.485046
     11      -0.000239  -0.000282  -0.002497  -0.221561  -0.000972   0.018989
     12      -0.165188  -0.001866  -0.120291   0.350916   0.134819  -0.275931
     13      -0.367072  -0.015645  -0.208792  -0.340673   0.002831   0.485027
     14       0.000014   0.000266   0.002559  -0.221427   0.001888  -0.019083
     15      -0.577708  -0.015645  -0.409584   0.000308   0.424303   0.135537
     16      -0.010102  -0.003379   0.043745  -0.000136  -0.250473   0.081873
     17      -0.000173  -0.000015   0.000020  -0.283030   0.000632   0.000001
     18       0.109399  -0.002554  -0.309293  -0.000225  -0.317201   0.192665
     19       0.136262   0.001214   0.088409  -0.000213  -0.253515  -0.132828
     20       0.000030   0.000006  -0.000053  -0.196200   0.000241   0.000051
     21       0.271456  -0.002474   0.058673   0.000371   0.455680   0.157987
     22      -0.018314  -0.002590  -0.081182   0.000113   0.122073  -0.144017
     23       0.000178  -0.000009  -0.000005  -0.145833   0.000386   0.000019
     24      -0.105839  -0.003910   0.361881  -0.000083  -0.181433   0.054244
     25      -0.116508  -0.019565   0.092813   0.000165   0.239986   0.127238
     26      -0.000079  -0.000005   0.000155  -0.047669   0.000041   0.000062
     27      -0.279871  -0.017750   0.643647  -0.000045  -0.110342   0.280280
     28       0.001051  -0.010296  -0.084077   0.000201   0.191787  -0.022390
     29       0.000053   0.000008  -0.000425  -0.142146   0.000270  -0.000156
     30      -0.116030   0.043960  -0.020515  -0.000049  -0.058668  -0.006940
     31       0.012174  -0.007898  -0.003053   0.000027   0.027016  -0.002761
     32      -0.000099   0.000035  -0.000026   0.004862  -0.000046  -0.000008
     33      -0.055754  -0.749955  -0.037842  -0.000063  -0.127481  -0.101328
     34       0.013783  -0.025382  -0.002342   0.000039   0.026818  -0.004487
     35      -0.000052  -0.000772  -0.000095  -0.035795  -0.000106  -0.000114
     36      -0.122392   0.159723  -0.016000   0.000228  -0.045357   0.001535
     37      -0.040964   0.638514   0.007374   0.000145   0.069489   0.040377
     38      -0.000185   0.000489  -0.000031  -0.221551   0.000204   0.000040
                 18         19         20         21         22         23    
      0      -0.000013  -0.000040  -0.000005  -0.001212  -0.081024  -0.000065
      1       0.000002  -0.000015  -0.000016  -0.115097   0.014066   0.000010
      2       0.058679   0.111126   0.012897  -0.000057  -0.000029   0.205375
      3       0.000026   0.000083   0.000067   0.199579  -0.047840   0.000006
      4       0.000005   0.000074  -0.000014   0.160559   0.031318   0.000022
      5      -0.095298  -0.315909  -0.008826   0.000086   0.000014  -0.097644
      6       0.000010  -0.000019  -0.000065  -0.227782  -0.024555   0.000040
      7      -0.000008  -0.000003   0.000048   0.141165  -0.182600  -0.000019
      8       0.017624   0.062734   0.000513  -0.000075   0.000014  -0.166465
      9      -0.125102  -0.298628  -0.016533  -0.266265  -0.028711   0.504919
     10       0.111054   0.266606   0.014386   0.379275   0.373047  -0.331020
     11      -0.056506  -0.115632  -0.008759   0.018391   0.084537   0.159782
     12       0.125153   0.298653   0.016395  -0.266496  -0.028544  -0.504972
     13      -0.111092  -0.266545  -0.014230   0.379470   0.372939   0.331057
     14      -0.056456  -0.115523  -0.008758  -0.018397  -0.084557   0.159572
     15       0.000014   0.000062  -0.000036  -0.002081   0.674301   0.000005
     16       0.000001  -0.000003   0.000040   0.070267  -0.426550  -0.000063
     17      -0.088059  -0.203866  -0.009887   0.000064   0.000074   0.371999
     18      -0.000006  -0.000010  -0.000044  -0.069004   0.014775   0.000013
     19       0.000002  -0.000030  -0.000048  -0.216119   0.119737   0.000016
     20      -0.021955  -0.031381  -0.022228   0.000029  -0.000006  -0.034696
     21       0.000020  -0.000022  -0.000009  -0.004690   0.010118  -0.000006
     22      -0.000010   0.000010   0.000021   0.364043   0.016257  -0.000011
     23       0.010720   0.109411   0.018335   0.000039   0.000004   0.018917
     24      -0.000014  -0.000018   0.000096   0.152042   0.048691   0.000003
     25       0.000019  -0.000038   0.000016  -0.339752  -0.050658  -0.000015
     26       0.023890   0.087612  -0.059939   0.000022  -0.000010   0.021294
     27       0.000016   0.000066  -0.000475  -0.288622   0.055794   0.000051
     28      -0.000004  -0.000008  -0.000294  -0.032584  -0.047072  -0.000028
     29       0.020342  -0.057708   0.996324  -0.001075   0.000145  -0.005470
     30       0.000054  -0.000032  -0.000002  -0.008959  -0.000722   0.000003
[...]
     30       0.000963  -0.000677  -0.000299   0.001688   0.002038   0.000001
     31      -0.003807   0.003182  -0.000375  -0.002793  -0.002304  -0.000001
     32       0.000001  -0.000000  -0.000000   0.000002   0.000002   0.000232
     33       0.029438  -0.010976   0.003943   0.004415  -0.004177  -0.000003
     34      -0.000667   0.002087  -0.000423  -0.000656  -0.001627  -0.000001
     35       0.000039  -0.000019   0.000007   0.000005  -0.000009   0.000121
     36      -0.000873  -0.000206   0.002201  -0.008575  -0.006023  -0.000001
     37       0.033847  -0.015587   0.003226   0.013027   0.000182  -0.000001
     38      -0.000040   0.000006   0.000007  -0.000037  -0.000022  -0.000418
                 30         31         32         33         34         35    
      0       0.170715   0.126348  -0.057570  -0.001011   0.000000  -0.001206
      1       0.229516   0.026671  -0.012793   0.000867  -0.000000  -0.000279
      2       0.000033   0.000036  -0.000016  -0.000000   0.000964  -0.000000
      3      -0.069483  -0.196775   0.101026  -0.000129  -0.000000   0.000224
      4       0.110686  -0.224634   0.100491  -0.000358   0.000000  -0.000707
      5       0.000003  -0.000090   0.000046  -0.000000   0.000565   0.000000
      6      -0.036533  -0.019660   0.007999   0.050762  -0.000021  -0.049894
      7       0.021164   0.003593  -0.001032  -0.016784  -0.000001  -0.077234
      8      -0.000004  -0.000005   0.000003   0.000013   0.091199  -0.000012
      9      -0.301331  -0.050335   0.020464  -0.365300   0.416340   0.149709
     10      -0.208744   0.018350  -0.008077  -0.093086   0.104950   0.028985
     11      -0.225451  -0.018473   0.007565   0.526415  -0.558000  -0.224548
     12      -0.301414  -0.050347   0.020469  -0.365103  -0.416081   0.149607
     13      -0.208756   0.018358  -0.008077  -0.093061  -0.104911   0.028970
     14       0.225308   0.018452  -0.007556  -0.526611  -0.558152   0.224604
     15       0.606123   0.049633  -0.018076   0.140460  -0.000011   0.311341
     16      -0.213459  -0.021182   0.008329   0.372702  -0.000021   0.864438
     17       0.000106   0.000005  -0.000001   0.000041   0.017360   0.000091
     18      -0.038540  -0.011285   0.003499  -0.000018   0.000000   0.000029
     19      -0.131266  -0.001117   0.000957   0.000485  -0.000000   0.000210
     20      -0.000001  -0.000000  -0.000001   0.000000  -0.000269  -0.000000
     21      -0.018856   0.056027  -0.029056  -0.000202  -0.000000  -0.000300
     22      -0.066110   0.120805  -0.051060   0.000053  -0.000000   0.000266
     23      -0.000015   0.000033  -0.000016  -0.000000  -0.000010  -0.000000
     24      -0.005848   0.049931  -0.023383   0.000133   0.000000  -0.000062
     25      -0.023080   0.011101  -0.004291   0.000021   0.000000  -0.000101
     26      -0.000009   0.000021  -0.000010   0.000000  -0.000121  -0.000000
     27       0.242312  -0.377406   0.154022  -0.000144  -0.000000   0.000886
     28      -0.181542   0.261057  -0.112095  -0.001150  -0.000000   0.003448
     29       0.000069  -0.000118   0.000039  -0.000001   0.000250   0.000002
     30      -0.000996   0.041256   0.046684   0.000037   0.000000   0.000041
     31       0.001304   0.036119   0.044023  -0.000041  -0.000000  -0.000002
     32      -0.000002   0.000060   0.000068   0.000000  -0.000006   0.000000
     33      -0.004207  -0.523767  -0.609099   0.000092   0.000000  -0.000035
     34      -0.000293  -0.010928  -0.014702  -0.000011  -0.000000   0.000039
     35      -0.000010  -0.000624  -0.000715   0.000000  -0.000020  -0.000000
     36       0.007213  -0.131794  -0.145084  -0.000480  -0.000000  -0.000659
     37      -0.014726  -0.598763  -0.733465   0.000311  -0.000000   0.000236
     38       0.000027  -0.000344  -0.000365  -0.000001   0.000104  -0.000001
                 36         37         38    
      0      -0.000388  -0.000766   0.000106
      1      -0.002193  -0.000224  -0.000016
      2      -0.000000  -0.000000   0.000000
      3      -0.001599   0.000701   0.000021
      4       0.007524  -0.003091   0.000808
      5       0.000002  -0.000000   0.000000
      6      -0.000120   0.000099  -0.000012
      7       0.000367   0.000011  -0.000014
      8      -0.000000   0.000000  -0.000000
      9       0.001539   0.000244   0.000014
     10       0.000422   0.000181  -0.000063
     11      -0.000953   0.000064  -0.000008
     12       0.001537   0.000244   0.000014
     13       0.000423   0.000181  -0.000063
     14       0.000954  -0.000064   0.000008
     15      -0.000929  -0.000671   0.000080
     16       0.003542   0.001559  -0.000157
     17      -0.000001   0.000000  -0.000000
     18      -0.000511   0.000159  -0.000007
     19       0.001476   0.000524  -0.000072
     20       0.000001   0.000000   0.000000
     21       0.000159  -0.000251  -0.000233
     22      -0.002526   0.001540  -0.000266
     23      -0.000000  -0.000000  -0.000000
     24       0.035713   0.003948   0.000086
     25       0.048853   0.007415  -0.000324
     26       0.000032   0.000004  -0.000000
     27      -0.538230  -0.072163  -0.000569
     28      -0.830180  -0.109215  -0.000258
     29      -0.000535  -0.000070  -0.000001
     30       0.007560  -0.057488   0.007991
     31      -0.001218   0.007929  -0.061540
     32       0.000009  -0.000065  -0.000010
     33       0.007131  -0.037763  -0.045661
     34      -0.011964   0.087110   0.993724
     35       0.000006  -0.000018   0.000253
     36      -0.127174   0.960947  -0.079655
     37       0.030455  -0.216737  -0.015197
     38      -0.000139   0.001056  -0.000097


-----------
IR SPECTRUM
-----------

 Mode   freq       eps      Int      T**2         TX        TY        TZ
       cm**-1   L/(mol*cm) km/mol    a.u.
----------------------------------------------------------------------------
  7:     96.02   0.000190    0.96  0.000616  (-0.022866  0.009661 -0.000025)
  8:    102.63   0.000070    0.35  0.000212  (-0.000027  0.000009 -0.014563)
  9:    155.57   0.011541   58.32  0.023150  (-0.000165 -0.000018  0.152151)
 10:    187.16   0.001053    5.32  0.001755  ( 0.000052  0.000021 -0.041896)
 11:    201.97   0.000058    0.29  0.000090  (-0.009183  0.002381  0.000039)
 12:    339.02   0.005437   27.48  0.005005  (-0.070260 -0.008279 -0.000026)
 13:    435.68   0.014105   71.28  0.010103  (-0.062497  0.078722 -0.000029)
 14:    459.52   0.002536   12.82  0.001723  ( 0.037496 -0.017794 -0.000032)
 15:    533.00   0.001101    5.56  0.000644  (-0.000002  0.000001  0.025384)
 16:    572.61   0.000535    2.71  0.000292  (-0.013762 -0.010116 -0.000043)
 17:    627.93   0.005038   25.46  0.002504  (-0.050033 -0.000760 -0.000033)
 18:    729.43   0.012998   65.69  0.005561  (-0.000123 -0.000041  0.074570)
 19:    764.39   0.011972   60.50  0.004888  ( 0.000068  0.000017 -0.069911)
 20:    799.02   0.015444   78.05  0.006032  (-0.000043 -0.000011  0.077666)
 21:    806.84   0.002273   11.49  0.000879  (-0.000836  0.029639 -0.000004)
 22:   1004.07   0.000519    2.62  0.000161  (-0.012517  0.002151  0.000009)
 23:   1037.00   0.000570    2.88  0.000171  (-0.000005  0.000001  0.013095)
 24:   1119.30   0.024179  122.19  0.006741  ( 0.072176 -0.039137 -0.000002)
 25:   1345.76   0.015820   79.95  0.003668  ( 0.050935 -0.032772  0.000016)
 26:   1384.16   0.033996  171.80  0.007665  (-0.071961  0.049861 -0.000008)
 27:   1411.49   0.047738  241.25  0.010554  ( 0.024734 -0.099712 -0.000019)
 28:   1454.87   0.001156    5.84  0.000248  ( 0.001830  0.015641 -0.000025)
 29:   1459.87   0.001854    9.37  0.000396  (-0.000001  0.000009  0.019909)
 30:   1497.29   0.013290   67.16  0.002770  ( 0.019247  0.048984  0.000013)
 31:   1707.72   0.040739  205.88  0.007445  (-0.068950 -0.051870 -0.000055)
 32:   1724.85   0.007583   38.32  0.001372  (-0.035887 -0.009166 -0.000047)
 33:   3033.20   0.000221    1.12  0.000023  (-0.003519  0.003223  0.000001)
 34:   3102.94   0.000014    0.07  0.000001  ( 0.000001 -0.000000  0.001178)
 35:   3158.59   0.000616    3.11  0.000061  ( 0.005513 -0.005523  0.000001)
 36:   3563.73   0.047045  237.75  0.004120  (-0.051755 -0.037961 -0.000036)
 37:   3579.90   0.085566  432.42  0.007459  ( 0.086002  0.007910  0.000080)
 38:   3930.50   0.004726   23.89  0.000375  (-0.013321  0.014064 -0.000007)

* The epsilon (eps) is given for a Dirac delta lineshape.
** The dipole moment derivative (T) already includes vibrational overlap.

The first frequency considered to be a vibration is 7
The total number of vibrations considered is 32


--------------------------
THERMOCHEMISTRY AT 298.15K
--------------------------

Temperature         ...   298.15 K
Pressure            ...     1.00 atm
Total Mass          ...   106.08 AMU
Quasi RRHO          ...     True
Cut-Off Frequency   ...     1.00 cm^-1

Throughout the following assumptions are being made:
  (1) The electronic state is orbitally nondegenerate
  (2) There are no thermally accessible electronically excited states
  (3) Hindered rotations indicated by low frequency modes are not
      treated as such but are treated as vibrations and this may
      cause some error
  (4) All equations used are the standard statistical mechanics
      equations for an ideal gas
  (5) All vibrations are strictly harmonic

freq.      96.02  E(vib)   ...       0.47 
freq.     102.63  E(vib)   ...       0.46 
freq.     155.57  E(vib)   ...       0.40 
freq.     187.16  E(vib)   ...       0.36 
freq.     201.97  E(vib)   ...       0.35 
freq.     339.02  E(vib)   ...       0.23 
freq.     435.68  E(vib)   ...       0.17 
freq.     459.52  E(vib)   ...       0.16 
freq.     533.00  E(vib)   ...       0.13 
freq.     572.61  E(vib)   ...       0.11 
freq.     627.93  E(vib)   ...       0.09 
freq.     729.43  E(vib)   ...       0.06 
freq.     764.39  E(vib)   ...       0.06 
freq.     799.02  E(vib)   ...       0.05 
freq.     806.84  E(vib)   ...       0.05 
freq.    1004.07  E(vib)   ...       0.02 
freq.    1037.00  E(vib)   ...       0.02 
freq.    1119.30  E(vib)   ...       0.01 
freq.    1345.76  E(vib)   ...       0.01 
freq.    1384.16  E(vib)   ...       0.00 
freq.    1411.49  E(vib)   ...       0.00 
freq.    1454.87  E(vib)   ...       0.00 
freq.    1459.87  E(vib)   ...       0.00 
freq.    1497.29  E(vib)   ...       0.00 
freq.    1707.72  E(vib)   ...       0.00 
freq.    1724.85  E(vib)   ...       0.00 
freq.    3033.20  E(vib)   ...       0.00 
freq.    3102.94  E(vib)   ...       0.00 
freq.    3158.59  E(vib)   ...       0.00 
freq.    3563.73  E(vib)   ...       0.00 
freq.    3579.90  E(vib)   ...       0.00 
freq.    3930.50  E(vib)   ...       0.00 

------------
INNER ENERGY
------------

The inner energy is: U= E(el) + E(ZPE) + E(vib) + E(rot) + E(trans)
    E(el)   - is the total energy from the electronic structure calculation
              = E(kin-el) + E(nuc-el) + E(el-el) + E(nuc-nuc)
    E(ZPE)  - the the zero temperature vibrational energy from the frequency calculation
    E(vib)  - the the finite temperature correction to E(ZPE) due to population
              of excited vibrational states
    E(rot)  - is the rotational thermal energy
    E(trans)- is the translational thermal energy

Summary of contributions to the inner energy U:
Electronic energy                ...   -418.74785951 Eh
Zero point energy                ...      0.09642577 Eh      60.51 kcal/mol
Thermal vibrational correction   ...      0.00515411 Eh       3.23 kcal/mol
Thermal rotational correction    ...      0.00141627 Eh       0.89 kcal/mol
Thermal translational correction ...      0.00141627 Eh       0.89 kcal/mol
-----------------------------------------------------------------------
Total thermal energy                   -418.64344708 Eh


Summary of corrections to the electronic energy:
(perhaps to be used in another calculation)
Total thermal correction                  0.00798666 Eh       5.01 kcal/mol
Non-thermal (ZPE) correction              0.09642577 Eh      60.51 kcal/mol
-----------------------------------------------------------------------
Total correction                          0.10441243 Eh      65.52 kcal/mol


--------
ENTHALPY
--------

The enthalpy is H = U + kB*T
                kB is Boltzmann's constant
Total thermal energy              ...   -418.64344708 Eh 
Thermal Enthalpy correction       ...      0.00094421 Eh       0.59 kcal/mol
-----------------------------------------------------------------------
Total Enthalpy                    ...   -418.64250287 Eh


Note: Only C1 symmetry has been detected, increase convergence thresholds 
      if your molecule has a higher symmetry. Symmetry factor of 1.0 is   
      used for the rotational entropy correction. 
 

Note: Rotational entropy computed according to Herzberg 
Infrared and Raman Spectra, Chapter V,1, Van Nostrand Reinhold, 1945 
Point Group:  C1, Symmetry Number:   1  
Rotational constants in cm-1:     0.175530     0.044258     0.035582 

Vibrational entropy computed according to the QRRHO of S. Grimme
Chem.Eur.J. 2012 18 9955 using a reference frequency of 100.0 cm-1


-------
ENTROPY
-------

The entropy contributions are T*S = T*(S(el)+S(vib)+S(rot)+S(trans))
     S(el)   - electronic entropy
     S(vib)  - vibrational entropy
     S(rot)  - rotational entropy
     S(trans)- translational entropy
The entropies will be listed as multiplied by the temperature to get
units of energy

Electronic entropy                ...      0.00000000 Eh      0.00 kcal/mol
Vibrational entropy               ...      0.00895336 Eh      5.62 kcal/mol
Rotational entropy                ...      0.01337891 Eh      8.40 kcal/mol
Translational entropy             ...      0.01895480 Eh     11.89 kcal/mol
-----------------------------------------------------------------------
Final entropy term                ...      0.04128707 Eh     25.91 kcal/mol

In case the symmetry of your molecule has not been determined correctly
or in case you have a reason to use a different symmetry number we print 
out the resulting rotational entropy values for sn=1,12:

 non-linear molecules -----------------------------------
|  sn= 1 | S(rot)=       0.01337891 Eh      8.40 kcal/mol|
|  sn= 2 | S(rot)=       0.01272445 Eh      7.98 kcal/mol|
|  sn= 3 | S(rot)=       0.01234162 Eh      7.74 kcal/mol|
|  sn= 4 | S(rot)=       0.01207000 Eh      7.57 kcal/mol|
|  sn= 5 | S(rot)=       0.01185931 Eh      7.44 kcal/mol|
|  sn= 6 | S(rot)=       0.01168717 Eh      7.33 kcal/mol|
|  sn= 7 | S(rot)=       0.01154162 Eh      7.24 kcal/mol|
|  sn= 8 | S(rot)=       0.01141554 Eh      7.16 kcal/mol|
|  sn= 9 | S(rot)=       0.01130433 Eh      7.09 kcal/mol|
|  sn=10 | S(rot)=       0.01120485 Eh      7.03 kcal/mol|
|  sn=11 | S(rot)=       0.01111486 Eh      6.97 kcal/mol|
|  sn=12 | S(rot)=       0.01103271 Eh      6.92 kcal/mol|
 linear molecules ---------------------------------------
|  Dinfh | S(rot)=       0.00847550 Eh      5.32 kcal/mol|
|  Cinfv | S(rot)=       0.00912996 Eh      5.73 kcal/mol|
 --------------------------------------------------------


-------------------
GIBBS FREE ENERGY
-------------------

The Gibbs free energy is G = H - T*S

Total enthalpy                    ...   -418.64250287 Eh 
Total entropy correction          ...     -0.04128707 Eh    -25.91 kcal/mol
-----------------------------------------------------------------------
Final Gibbs free energy         ...   -418.68378994 Eh

For completeness - the Gibbs free energy minus the electronic energy
G-E(el)                           ...      0.06406957 Eh     40.20 kcal/mol


Maximum memory used throughout the entire PROP-calculation: 37.4 MB

--------------------------------
SUGGESTED CITATIONS FOR THIS RUN
--------------------------------

Below you find a list of papers that are relevant to this ORCA run
We neither can nor want to force you to cite these papers, but we appreciate if you do
You receive ORCA, which is the product of decades of hard work by many enthusiastic individuals, for free
The only thing we kindly ask in return is that you cite our papers,
We deeply appreciate it, if you show your appreciation for ORCA by not just citing the generic ORCA reference.

Please note that relegating all ORCA citations to the supporting information does *not* help us.
SI sections are not indexed - citations you put there will not count into any citation statistics
But we need these citations in order to attract the funding resources that allow us to do what we are doing

Therefore, if you are a happy ORCA user, please consider citing a few of the papers listed below in the main body of your paper

In addition to the list printed below, the program has created the file s0_freq_1_wat.bibtex that contains the list in bibtex format
You can import this file easily into all common literature databanks and citation aid programs


List of essential papers. We consider these as the minimum necessary citations

  1. Neese, F.
     Software update: the ORCA program system, version 6.0
     WIRES Comput. Molec. Sci. 2025 15(1), e70019
     doi.org/10.1002/wcms.7019

List of papers to cite with high priority. The work reported in these papers was absolutely
necessary for this run to complete.
Our perspective: the developers of density functionals and basis sets usually get cited in chemistry papers
Good! But without the algorithms to do something with them, the functionals or basis sets would not do anything.
Hence, in our opinion, the algorithm design and method developments papers are equally worthy of getting cited

  1. Bykov, D.; Petrenko, T.; Izsak, R.; Kossmann, S.; Becker, U.; Valeev, E.; Neese, F.
     Efficient implementation of the analytic second derivatives of Hartree-Fock and hybrid DFT energies: a detailed analysis of different approximations
     Molec. Phys. 2015 113 , 1961-1977
     doi.org/10.1080/00268976.2015.1025114
  2. Lehtola, S.; Steigemann, C.; Oliveira, M.; Marques, M.
     Recent developments in Libxc - A comprehensive library of functionals for density functional theory
     Software X 2018 7 , 
     doi.org/10.1016/j.softx.2017.11.002
  3. Neese, F.
     The SHARK Integral Generation and Digestion System
     J. Comp. Chem. 2022 44(3), 381
     doi.org/10.1002/jcc.26942

List of suggested additional citations. These are papers that are important in the 'surrounding' of 
of this run, or papers that preceded the highly important papers. If you like your results we are grateful for a citation.

  1. Neese, F.
     The ORCA program system
     WIRES Comput. Molec. Sci. 2012 2(1), 73-78
     doi.org/10.1002/wcms.81
  2. Neese, F.
     Software update: the ORCA program system, version 4.0
     WIRES Comput. Molec. Sci. 2018 8(1), 1-6
     doi.org/10.1002/wcms.1327
  3. Neese, F.; Wennmohs, F.; Becker, U.; Riplinger, C.
     The ORCA quantum chemistry program package
     J. Chem. Phys. 2020 152(22), 224108
     doi.org/10.1063/5.0004608
  4. Neese, F.
     Software update: The ORCA program system—Version 5.0
     WIRES Comput. Molec. Sci. 2022 12(1), e1606
     doi.org/10.1002/wcms.1606

List of optional additional citations

  1. Neese, F.
     Approximate second-order SCF convergence for spin unrestricted wavefunctions
     Chem. Phys. Lett. 2000 325(1-3), 93-98
     doi.org/10.1016/s0009-2614(00)00662-x

Timings for individual modules:

Sum of individual times          ...     1346.358 sec (=  22.439 min)
Startup calculation              ...        9.599 sec (=   0.160 min)   0.7 %
SCF iterations                   ...       67.464 sec (=   1.124 min)   5.0 %
Property integrals               ...      147.187 sec (=   2.453 min)  10.9 %
SCF Response                     ...      908.778 sec (=  15.146 min)  67.5 %
Property calculations            ...      190.438 sec (=   3.174 min)  14.1 %
SCF Gradient evaluation          ...       22.893 sec (=   0.382 min)   1.7 %
                             ****ORCA TERMINATED NORMALLY****
TOTAL RUN TIME: 0 days 0 hours 22 minutes 27 seconds 274 msec
