
                                 *****************
                                 * O   R   C   A *
                                 *****************

                                            #,                                       
                                            ###                                      
                                            ####                                     
                                            #####                                    
                                            ######                                   
                                           ########,                                 
                                     ,,################,,,,,                         
                               ,,#################################,,                 
                          ,,##########################################,,             
                       ,#########################################, ''#####,          
                    ,#############################################,,   '####,        
                  ,##################################################,,,,####,       
                ,###########''''           ''''###############################       
              ,#####''   ,,,,##########,,,,          '''####'''          '####       
            ,##' ,,,,###########################,,,                        '##       
           ' ,,###''''                  '''############,,,                           
         ,,##''                                '''############,,,,        ,,,,,,###''
      ,#''                                            '''#######################'''  
     '                                                          ''''####''''         
             ,#######,   #######,   ,#######,      ##                                
            ,#'     '#,  ##    ##  ,#'     '#,    #''#        ,####,    ,#,          
            ##       ##  ##   ,#'  ##            #'  '#       #'       ,# #          
            ##       ##  #######   ##           ,######,      #####,      #          
            '#,     ,#'  ##    ##  '#,     ,#' ,#      #,     #,   #      #          
             '#######'   ##     ##  '#######'  #'      '#     '####' #    #          



                #########################################################
                #                        -***-                          #
                #          Department of theory and spectroscopy        #
                #                                                       #
                #                      Frank Neese                      #
                #                                                       #
                #     Directorship, Architecture, Infrastructure        #
                #                    SHARK, DRIVERS                     #
                #        Core code/Algorithms in most modules           #
                #                                                       #
                #        Max Planck Institute fuer Kohlenforschung      #
                #                Kaiser Wilhelm Platz 1                 #
                #                 D-45470 Muelheim/Ruhr                 #
                #                      Germany                          #
                #                                                       #
                #                  All rights reserved                  #
                #                        -***-                          #
                #########################################################


                         Program Version 6.1.0  -  RELEASE   -
                                (GIT: $679e74b$)
                          ($2025-06-10 18:02:51 +0200$)


 With contributions from (in alphabetic order):
[Max-Planck-Institut fuer Kohlenforschung]                               
  Daniel Aravena         : Magnetic Suceptibility                        
  Michael Atanasov       : Ab Initio Ligand Field Theory (pilot matlab implementation)
  Alexander A. Auer      : GIAO ZORA, VPT2 properties, NMR spectrum      
  Ute Becker             : All parallelization in ORCA, NUMFREQ, NUMCALC 
  Giovanni Bistoni       : ED, misc. LED, open-shell LED, HFLD           
  Dmytro Bykov           : pre 5.0 version of the SCF Hessian            
  Marcos Casanova-Páez   : Triplet and SCS-CIS(D). UHF-(DLPNO)-IP/EA/STEOM-CCSD. UHF-CVS-IP/STEOM-CCSD   
  Vijay G. Chilkuri      : MRCI spin determinant printing, contributions to CSF-ICE 
  Pauline Colinet        : FMM embedding                                 
  Dipayan Datta          : RHF DLPNO-CCSD density                        
  Achintya Kumar Dutta   : EOM-CC, STEOM-CC                              
  Nicolas Foglia         : Exact transition moments, OPA infrastructure, MCD improvements    
  Dmitry Ganyushin       : Spin-Orbit,Spin-Spin,Magnetic field MRCI      
  Miquel Garcia-Rates    : C-PCM and meta-GGA Hessian, CCSD/C-PCM, Gaussian charge scheme 
  Tiago L. C. Gouveia    : GS-ROHF, GS-ROCIS                             
  Yang Guo               : DLPNO-NEVPT2, F12-NEVPT2, CIM, IAO-localization        
  Andreas Hansen         : Spin unrestricted coupled pair/coupled cluster methods 
  Ingolf Harden          : AUTO-CI MPn and infrastructure                
  Benjamin Helmich-Paris : MC-RPA, TRAH-(SCF,CASSCF), AVAS, COSX integrals, SCF dyn. polar., MC-PDFT, srDFT 
  Lee Huntington         : MR-EOM, pCC                                   
  Robert Izsak           : Overlap fitted RIJCOSX, COSX-SCS-MP3, EOM     
  Riya Kayal             : Wick's Theorem for AUTO-CI, AUTO-CI UHF-CCSDT 
  Emily Kempfer          : AUTO-CI RHF CISDT and CCSDT, approximate NEVPT4
  Christian Kollmar      : KDIIS, OOCD, Brueckner-CCSD(T), CCSD density, CASPT2, CASPT2-K, improved NEVPT2 
  Axel Koslowski         : Symmetry handling                             
  Simone Kossmann        : meta-GGA functionals, TD-DFT gradient, OOMP2, (MP2 Hessian; deprecated post 5.0) 
  Lucas Lang             : DCDCAS, Hyperfine gauge corrections, ICE-SOC+SSC
  Marvin Lechner         : AUTO-CI (C++ implementation), FIC-MRCC        
  Spencer Leger          : CASSCF response                               
  Dagmar Lenk            : GEPOL surface, SMD, ORCA-2-JSON               
  Dimitrios Liakos       : Extrapolation schemes; Compound Job, Property file
  Dimitrios Manganas     : Further ROCIS development; embedding schemes. LFT, Crystal Embedding 
  Dimitrios Pantazis     : SARC Basis sets                               
  Anastasios Papadopoulos: AUTO-CI, single reference methods and gradients 
  Taras Petrenko         : pre 6.0 DFT Hessian and TD-DFT gradient,  ECA, NRVS 
  Petra Pikulova         : Analytic Raman intensities                    
  Peter Pinski           : DLPNO-MP2, DLPNO-MP2 Gradient                 
  Shashank Vittal Rao    : ES-AILFT, MagRelax                            
  Christoph Reimann      : Effective Core Potentials                     
  Marius Retegan         : Local ZFS, SOC                                
  Christoph Riplinger    : Optimizer, TS searches, QM/MM, DLPNO-CCSD(T), (RO)-DLPNO pert. Triples 
  Michael Roemelt        : Original ROCIS implementation, recursive CI coupling coefficients
  Masaaki Saitow         : Open-shell DLPNO-CCSD energy and density      
  Barbara Sandhoefer     : DKH picture change effects                    
  Yorick L. A. Schmerwitz: GMF and freeze-and-release deltaSCF, NEB S-IDPP initial path                    
  Kantharuban Sivalingam : CASSCF convergence/infrastructure, NEVPT2, NEVPT3, NEVPT4(SD), FIC-MRCI and CEPA variants
  Bernardo de Souza      : ESD, SOC TD-DFT                               
  Georgi L. Stoychev     : AutoAux, RI-MP2 NMR, DLPNO-MP2 response, X2C  
  Van Anh Tran           : RI-MP2 g-tensors                              
  Willem Van den Heuvel  : Paramagnetic NMR                              
  Zikuan Wang            : NOTCH, Electric field optimization            
  Frank Wennmohs         : Technical directorship and infrastructure     
  Hang Xu                : AUTO-CI-Response properties                   
                                                                         
[FACCTs GmbH]                                                            
  Markus Bursch, Nicolas Foglia, Miquel Garcia-Rates, Ingolf Harden, Hagen Neugebauer, Anastasios Papadopoulos, 
  Christoph Riplinger, Bernardo de Souza, Georgi L. Stoychev                                                    
                                                                 
  APM, various basis sets, CI-OPT, improved COSX, DLPNO-Multilevel,           
  DOCKER, DRACO, updates on ESD, Fragmentator, GOAT, IRC, LR-CPCM, L-BFGS, MBIS, meta-GGA TD-DFT gradient, ML-optimized integration grids, 
  MM, NACMEs, nearIR, NEB, NEB-TS, NL-DFT gradient (VV10), 2- and 3-layer-ONIOM, interface openCOSMO-RS, QMMM,   
  Crystal-QMMM, RESP, rigid body optimization, SF, symmetry and pop. for TD-DFT, various functionals, SOLVATOR                                   
                                                                         
[Other institutions]                                                     
  V. Asgeirsson          : NEB                                           
  Christoph Bannwarth    : sTDA-DFT, sTD-DFT, PBEh-3c, B97-3c, D3        
  Giovanni Bistoni       : ETS/NOCV, ADLD/ADEX, COVALED                  
  Martin Brehm           : Molecular dynamics                            
  Ronald Cardenas        : ETS/NOCV                                      
  Martina Colucci        : COVALED                                       
  Sebastian Ehlert       : rSCAN, r2SCAN, r2SCAN-3c, D4, dhf basis sets  
  Marvin Friede          : D4 for Fr, Ra, Ac-Lr                          
  Lars Goerigk           : TD-DFT with DH, B97 family of functionals     
  Stefan Grimme          : VdW corrections, initial TS optimization, DFT functionals, gCP, sTDA/sTD-DF 
  Waldemar Hujo          : DFT-NL                                        
  H. Jonsson             : NEB                                           
  Holger Kruse           : gCP                                           
  Marcel Mueller         : wB97X-3c, vDZP basis set                      
  Hagen Neugebauer       : wr2SCAN, Native XTB                           
  Gianluca Regni         : ADLD/ADEX                                     
  Tobias Risthaus        : pre 6.0 range-separated hybrid DFT and stability analysis
  Lukas Wittmann         : regularized MP2, r2SCAN double-hybrids, wr2SCAN        
                                                                         
We gratefully acknowledge several colleagues who have allowed us to      
interface, adapt or use parts of their codes:                            
  Ed Valeev, F. Pavosevic, A. Kumar             : LibInt (2-el integral package), F12 methods 
  Garnet Chan, S. Sharma, J. Yang, R. Olivares  : DMRG                   
  Ulf Ekstrom                                   : XCFun DFT Library      
  Mihaly Kallay                                 : mrcc  (arbitrary order and MRCC methods)
  Frank Weinhold                                : gennbo (NPA and NBO analysis)           
  Simon Mueller                                 : openCOSMO-RS                            
  Christopher J. Cramer and Donald G. Truhlar   : smd solvation model                     
  S Lehtola, MJT Oliveira, MAL Marques          : LibXC Library                           
  Liviu Ungur et al                             : ANISO software                          


 Your calculation uses the libint2 library for the computation of 2-el integrals
 For citations please refer to: http://libint.valeyev.net

 Your ORCA version has been built with support for libXC version: 7.0.0
 For citations please refer to: https://libxc.gitlab.io

 This ORCA versions uses:
   CBLAS   interface :  Fast vector & matrix operations
   LAPACKE interface :  Fast linear algebra routines
   SCALAPACK package :  Parallel linear algebra routines
   Shared memory     :  Shared parallel matrices
   BLAS/LAPACK       :  OpenBLAS 0.3.29  USE64BITINT DYNAMIC_ARCH NO_AFFINITY SkylakeX SINGLE_THREADED
        Core in use  :  SkylakeX
   Copyright (c) 2011-2014, The OpenBLAS Project


  ***********************************
  * Starting time: Wed Jan 28 11:55:47 2026
  * Host name:     bp1-compute215
  * Process ID:    2752561
  * Working dir.:  /user/work/kp22738/Diss/Orca/pyruvic_anion/dyson_orbitals/1_wat/15365124_s1_freq_1_wat
  ***********************************

NOTE: MaxCore=8000 MB was set to SCF,MP2,MDCI,CIPSI,MRCI,RASCI and CIS
      => If you want to overwrite this, your respective input block should be placed after the MaxCore statement
Using LibXC functional ID 471 : wB97X-D range-separated functional
[ 1]  J.-D. Chai and M. Head-Gordon.,  Phys. Chem. Chem. Phys. 10, 6615-6620 (2008)
Using LibXC functional ID 471 : wB97X-D range-separated functional
[ 1]  J.-D. Chai and M. Head-Gordon.,  Phys. Chem. Chem. Phys. 10, 6615-6620 (2008)
Your calculation utilizes LibXC
by S. Lehtola, C. Steigemann, M. J. T. Oliveira & M. A. L. Marques
Please cite in your paper:
Lehtola, S.; Steigemann, C.; Oliveira, M.J.T.; Marques, M. A. L. Software X, 7, (2018), 1.
   

================================================================================

----- Orbital basis set information -----
Your calculation utilizes the basis: aug-cc-pVDZ 
    H, B-Ne : Obtained from the ccRepo (grant-hill.group.shef.ac.uk/ccrepo) Feb. 2017
              R. A. Kendall, T. H. Dunning, Jr., R. J. Harrison, J. Chem. Phys. 96, 6796 (1992)
         He : Obtained from the ccRepo (grant-hill.group.shef.ac.uk/ccrepo) Feb. 2017
              D. E. Woon, T. H. Dunning, Jr., J. Chem. Phys. 100, 2975 (1994)
  Li-Be, Na : Obtained from the ccRepo (grant-hill.group.shef.ac.uk/ccrepo) Feb. 2017
              B. P. Prascher, D. E. Woon, K. A. Peterson, T. H. Dunning, Jr., A. K. Wilson, Theor. Chem. Acc. 128, 69 (2011)
         Mg : Obtained from the Peterson Research Group Website (tyr0.chem.wsu.edu/~kipeters) Feb. 2017
              B. P. Prascher, D. E. Woon, K. A. Peterson, T. H. Dunning, Jr., A. K. Wilson, Theor. Chem. Acc. 128, 69 (2011)
      Al-Ar : Obtained from the ccRepo (grant-hill.group.shef.ac.uk/ccrepo) Feb. 2017
              D. E. Woon, T. H. Dunning, Jr., J. Chem. Phys. 98, 1358 (1993)
      Sc-Zn : Obtained from the ccRepo (grant-hill.group.shef.ac.uk/ccrepo) Feb. 2017
              N. B. Balabanov, K. A. Peterson, J. Chem. Phys. 123, 064107 (2005)
              N. B. Balabanov, K. A. Peterson, J. Chem. Phys. 125, 074110 (2006)
      Ga-Kr : Obtained from the ccRepo (grant-hill.group.shef.ac.uk/ccrepo) Feb. 2017
              A. K. Wilson, D. E. Woon, K. A. Peterson, T. H. Dunning, Jr., J. Chem. Phys. 110, 7667 (1999)

================================================================================
                                        WARNINGS
                       Please study these warnings very carefully!
================================================================================


WARNING: Analytical Frequencies for this method not available!
  ===> : Switching to Numerical Frequencies!

WARNING: The environment variable RSH_COMMAND is not set!
  ===> : All Displacements for the Numerical Hessian or Gradient calculation
         will be started on localhost

WARNING: CIS/ROCIS methods need fully converged wavefunctions
  ===> : Setting SCFConvForced true
         You can overwrite this default with %scf ConvForced false 


================================================================================
                                       INPUT FILE
================================================================================
NAME = s1_freq_1_wat.inp
|  1> ! aug-cc-pVDZ TightSCF Engrad ANFREQ
|  2> 
|  3> %PAL NPROCS 8 END
|  4> 
|  5> %maxcore 8000
|  6> 
|  7> %method
|  8> method dft
|  9> functional hyb_gga_xc_wb97x_d
| 10> end
| 11> 
| 12> %TDDFT
| 13> NROOTS 10
| 14> DONTO TRUE
| 15> IROOT 1
| 16> END
| 17> 
| 18> * xyz 0 1
| 19>   C     -0.652599   -0.222620    0.000026
| 20>   C      0.704994    0.248880    0.000429
| 21>   C     -1.793407    0.759899   -0.000192
| 22>   H     -2.431432    0.606736    0.886085
| 23>   H     -2.431051    0.606780   -0.886751
| 24>   H     -1.418596    1.790709   -0.000080
| 25>   O     -0.862076   -1.491330    0.000100
| 26>   O      1.118778    1.427594    0.000705
| 27>   O      1.607966   -0.785033    0.000435
| 28>   H      1.006664   -1.561270   -0.000079
| 29>   O      3.879411    1.363126    0.003274
| 30>   H      3.889754    0.401977    0.002990
| 31>   H      2.909794    1.528853    0.002189
| 32> * 
| 33> 
| 34>                          ****END OF INPUT****
================================================================================

                     *******************************
                     * Energy+Gradient Calculation *
                     *******************************

---------------------------------
CARTESIAN COORDINATES (ANGSTROEM)
---------------------------------
  C     -0.652599   -0.222620    0.000026
  C      0.704994    0.248880    0.000429
  C     -1.793407    0.759899   -0.000192
  H     -2.431432    0.606736    0.886085
  H     -2.431051    0.606780   -0.886751
  H     -1.418596    1.790709   -0.000080
  O     -0.862076   -1.491330    0.000100
  O      1.118778    1.427594    0.000705
  O      1.607966   -0.785033    0.000435
  H      1.006664   -1.561270   -0.000079
  O      3.879411    1.363126    0.003274
  H      3.889754    0.401977    0.002990
  H      2.909794    1.528853    0.002189

----------------------------
CARTESIAN COORDINATES (A.U.)
----------------------------
  NO LB      ZA    FRAG     MASS         X           Y           Z
   0 C     6.0000    0    12.011   -1.233233   -0.420691    0.000049
   1 C     6.0000    0    12.011    1.332246    0.470315    0.000811
   2 C     6.0000    0    12.011   -3.389048    1.436001   -0.000363
   3 H     1.0000    0     1.008   -4.594741    1.146565    1.674458
   4 H     1.0000    0     1.008   -4.594021    1.146648   -1.675717
   5 H     1.0000    0     1.008   -2.680758    3.383950   -0.000151
   6 O     8.0000    0    15.999   -1.629088   -2.818205    0.000189
   7 O     8.0000    0    15.999    2.114184    2.697762    0.001332
   8 O     8.0000    0    15.999    3.038615   -1.483497    0.000822
   9 H     1.0000    0     1.008    1.902319   -2.950373   -0.000149
  10 O     8.0000    0    15.999    7.331024    2.575935    0.006187
  11 H     1.0000    0     1.008    7.350570    0.759626    0.005650
  12 H     1.0000    0     1.008    5.498714    2.889113    0.004137

--------------------------------
INTERNAL COORDINATES (ANGSTROEM)
--------------------------------
 C      0   0   0     0.000000000000     0.00000000     0.00000000
 C      1   0   0     1.437139925706     0.00000000     0.00000000
 C      1   2   0     1.505585110762   120.11096602     0.00000000
 H      3   1   2     1.102733751149   110.34349995   239.02059565
 H      3   1   2     1.102733947685   110.34331439   120.98865468
 H      3   1   2     1.096837524142   110.75493724     0.00000000
 O      1   2   3     1.285887119115   118.52794467   180.01221405
 O      2   1   3     1.249233352352   128.49588552     0.00000000
 O      2   1   3     1.372710648458   111.98005149   180.00648738
 H      9   2   1     0.981890136201   101.10483963     0.00000000
 O      8   2   1     2.761386840606   108.00571093   179.95852645
 H     11   8   2     0.961204691263    91.95428705     0.00000000
 H     11   8   2     0.983678678453     8.36151099   179.93208421

---------------------------
INTERNAL COORDINATES (A.U.)
---------------------------
 C      0   0   0     0.000000000000     0.00000000     0.00000000
 C      1   0   0     2.715800875708     0.00000000     0.00000000
 C      1   2   0     2.845143530650   120.11096602     0.00000000
 H      3   1   2     2.083864788303   110.34349995   239.02059565
 H      3   1   2     2.083865159703   110.34331439   120.98865468
 H      3   1   2     2.072722534036   110.75493724     0.00000000
 O      1   2   3     2.429974494264   118.52794467   180.01221405
 O      2   1   3     2.360708913305   128.49588552     0.00000000
 O      2   1   3     2.594047186702   111.98005149   180.00648738
 H      9   2   1     1.855503451019   101.10483963     0.00000000
 O      8   2   1     5.218264878560   108.00571093   179.95852645
 H     11   8   2     1.816413625127    91.95428705     0.00000000
 H     11   8   2     1.858883306054     8.36151099   179.93208421

---------------------
BASIS SET INFORMATION
---------------------
There are 3 groups of distinct atoms

 Group   1 Type C   : 18s5p2d contracted to 4s3p2d pattern {8811/311/11}
 Group   2 Type H   : 5s2p contracted to 3s2p pattern {311/11}
 Group   3 Type O   : 18s5p2d contracted to 4s3p2d pattern {8811/311/11}

Atom   0C    basis set group =>   1
Atom   1C    basis set group =>   1
Atom   2C    basis set group =>   1
Atom   3H    basis set group =>   2
Atom   4H    basis set group =>   2
Atom   5H    basis set group =>   2
Atom   6O    basis set group =>   3
Atom   7O    basis set group =>   3
Atom   8O    basis set group =>   3
Atom   9H    basis set group =>   2
Atom  10O    basis set group =>   3
Atom  11H    basis set group =>   2
Atom  12H    basis set group =>   2


           ************************************************************
           *        Program running with 8 parallel MPI-processes     *
           *              working on a common directory               *
           ************************************************************
------------------------------------------------------------------------------
                             ORCA STARTUP CALCULATIONS
------------------------------------------------------------------------------
------------------------------------------------------------------------------
                   ___                                                        
                  /   \      - P O W E R E D   B Y -                         
                 /     \                                                     
                 |  |  |   _    _      __       _____    __    __             
                 |  |  |  | |  | |    /  \     |  _  \  |  |  /  |          
                  \  \/   | |  | |   /    \    | | | |  |  | /  /          
                 / \  \   | |__| |  /  /\  \   | |_| |  |  |/  /          
                |  |  |   |  __  | /  /__\  \  |    /   |      \           
                |  |  |   | |  | | |   __   |  |    \   |  |\   \          
                \     /   | |  | | |  |  |  |  | |\  \  |  | \   \       
                 \___/    |_|  |_| |__|  |__|  |_| \__\ |__|  \__/        
                                                                              
                      - O R C A' S   B I G   F R I E N D -                    
                                      &                                       
                       - I N T E G R A L  F E E D E R -                       
                                                                              
 v1 FN, 2020, v2 2021, v3 2022-2024                                           
------------------------------------------------------------------------------


----------------------
SHARK INTEGRAL PACKAGE
----------------------

Number of atoms                             ...     13
Number of basis functions                   ...    257
Number of shells                            ...    135
Maximum angular momentum                    ...      2
Integral batch strategy                     ... SHARK/LIBINT Hybrid
RI-J (if used) integral strategy            ... SPLIT-RIJ (Revised 2003 algorithm where possible)
Printlevel                                  ...      1
Contraction scheme used                     ... PARTIAL GENERAL contraction
Prescreening option                         ... SCHWARTZ
   Thresh                                   ... 2.500e-11
   Tcut                                     ... 2.500e-12
   Tpresel                                  ... 2.500e-12 
Coulomb Range Separation                    ... NOT USED
Exchange Range Separation                   ... Long Range
   Mu parameter                             ... 2.000e-01
   Scaling (regular/separated)              ... 2.220e-01 7.780e-01
Robust (split-)RI terms used:
  metric    (central integrals)             ... YES
  density   (r.h.s.  integrals)             ... YES
  potential (l.h.s.  integrals)             ... YES
Multipole approximations                    ... NOT USED
Finite Nucleus Model                        ... NOT USED
CABS basis                                  ... NOT available
Auxiliary Coulomb fitting basis             ... NOT available
Auxiliary J/K fitting basis                 ... NOT available
Auxiliary Correlation fitting basis         ... NOT available
Auxiliary 'external' fitting basis          ... NOT available

Checking pre-screening integrals            ... done (  0.2 sec) Dimension = 135
Save PGC pre-screening integrals            ... done (  0.2 sec) Dimension = 135
Calculate PGC overlap integrals             ... done (  0.2 sec) Dimension = 93
Calculating pre-screening integrals (ORCA)  ... done (  0.3 sec) Dimension = 93
Shell pair information
Shell pair cut-off parameter TPreSel        ...   2.5e-12
Total number of shell pairs                 ...      9180
Shell pairs after pre-screening             ...      7532
Total number of primitive shell pairs       ...     13080
Primitive shell pairs kept                  ...      9874
          la=0 lb=0:   2711 shell pairs
          la=1 lb=0:   2626 shell pairs
          la=1 lb=1:    548 shell pairs
          la=2 lb=0:   1094 shell pairs
          la=2 lb=1:    450 shell pairs
          la=2 lb=2:    103 shell pairs

Checking whether 4 symmetric matrices of dimension 257 fit in memory
:Max Core in MB      =   8000.00
 MB in use           =      9.47
 MB left             =   7990.53
 MB needed           =      1.01
 Data fit in memory  = YES
Calculating Nuclear repulsion               ... done (  0.0 sec) ENN=    301.781966361163 Eh

Diagonalization of the overlap matrix:
Smallest eigenvalue                        ... 1.943e-05
Time for diagonalization                   ...    0.084 sec
Threshold for overlap eigenvalues          ... 1.000e-07
Number of eigenvalues below threshold      ... 0
Time for construction of square roots      ...    0.005 sec
Total time needed                          ...    0.091 sec

-------------------
DFT GRID GENERATION
-------------------

General Integration Accuracy     IntAcc      ... 4.388
Radial Grid Type                 RadialGrid  ... OptM3 with GC (2021)
Angular Grid (max. ang.)         AngularGrid ... 4 (Lebedev-302)
Angular grid pruning method      GridPruning ... 4 (adaptive)
Weight generation scheme         WeightScheme... mBecke (2022)
Basis function cutoff            BFCut       ... 1.0000e-11
Integration weight cutoff        WCut        ... 1.0000e-14
Partially contracted basis set               ... off
Rotationally invariant grid construction     ... off
Angular grids for H and He will be reduced by one unit
Diffuse basis detected: some atoms will have their outermost
                        angular grid increased by 1.

Total number of grid points                  ...    65298
Total number of batches                      ...     1027
Average number of points per batch           ...       63
Average number of grid points per atom       ...     5023

---------------------
SHARK GRID GENERATION
---------------------

General Integration Accuracy     IntAcc      ... 4.388
Radial Grid Type                 RadialGrid  ... OptM3 with GC (2021)
Angular Grid (max. ang.)         AngularGrid ... 4 (Lebedev-302)
Angular grid pruning method      GridPruning ... 4 (adaptive)
Weight generation scheme         WeightScheme... mBecke (2022)
Basis function cutoff            BFCut       ... 1.0000e-11
Integration weight cutoff        WCut        ... 1.0000e-14
Partially contracted basis set               ... off
Rotationally invariant grid construction     ... off
Angular grids for H and He will be reduced by one unit
Diffuse basis detected: some atoms will have their outermost
                        angular grid increased by 1.
Steep s-basis detected: some atoms will have their radial
                        grid points doubled.

Total number of grid points                  ...   110337
Total number of batches                      ...     1728
Average number of points per batch           ...       63
Average number of grid points per atom       ...     8487
Grids setup in   2.2 sec
Initializing property integral containers    ... done (  0.3 sec)

SHARK setup successfully completed in   3.7 seconds

Maximum memory used throughout the entire STARTUP-calculation: 31.4 MB


           ************************************************************
           *        Program running with 8 parallel MPI-processes     *
           *              working on a common directory               *
           ************************************************************
-------------------------------------------------------------------------------
                                 ORCA GUESS
                   Start orbitals & Density for SCF / CASSCF
-------------------------------------------------------------------------------

------------
SCF SETTINGS
------------
Hamiltonian:
 Density Functional     Method          .... DFT(GTOs)
  Functional kind                       .... Exchange-Correlation
  Functional name                       .... wB97X-D range-separated functional
  Functional family                     .... Hybrid GGA
  Functional refs                              
    [ 0] J.-D. Chai and M. Head-Gordon.,  Phys. Chem. Chem. Phys. 10, 6615-6620 (2008), doi: 10.1039/B810189B
  Fraction of HF Exchange (short range) .... 0.2220
  Fraction of HF Exchange ( int64 range )  .... 1.0000
  Range separation parameter mu         .... 0.2000
  Functional external parameters        .... 18
    Parameter  0 _cx0       =  7.779640e-01 : u^0 coefficient for exchange
    Parameter  1 _cx1       =  6.611600e-01 : u^1 coefficient for exchange
    Parameter  2 _cx2       =  5.745410e-01 : u^2 coefficient for exchange
    Parameter  3 _cx3       = -5.256710e+00 : u^3 coefficient for exchange
    Parameter  4 _cx4       =  1.163860e+01 : u^4 coefficient for exchange
    Parameter  5 _css0      =  1.000000e+00 : u^0 coefficient for same-spin correlation
    Parameter  6 _css1      = -6.905390e+00 : u^1 coefficient for same-spin correlation
    Parameter  7 _css2      =  3.133430e+01 : u^2 coefficient for same-spin correlation
    Parameter  8 _css3      = -5.105330e+01 : u^3 coefficient for same-spin correlation
    Parameter  9 _css4      =  2.644230e+01 : u^4 coefficient for same-spin correlation
    Parameter 10 _cos0      =  1.000000e+00 : u^0 coefficient for opposite-spin correlation
    Parameter 11 _cos1      =  1.794130e+00 : u^1 coefficient for opposite-spin correlation
    Parameter 12 _cos2      = -1.204770e+01 : u^2 coefficient for opposite-spin correlation
    Parameter 13 _cos3      =  1.408470e+01 : u^3 coefficient for opposite-spin correlation
    Parameter 14 _cos4      = -8.508090e+00 : u^4 coefficient for opposite-spin correlation
    Parameter 15 _alpha     =  1.000000e+00 : fraction of HF exchange
    Parameter 16 _beta      = -7.779640e-01 : fraction of short-range exchange
    Parameter 17 _omega     =  2.000000e-01 : range-separation constant
 Long-range corrected/Screened/Range-Separated Hybrid DFT is turned on
   Amount of maximum screened exact exchange              ....  0.777964
   Range separation parameter mu (erf(mu*r12)/r12)        ....  0.200000


General Settings:
 Integral files         IntName         .... s1_freq_1_wat
 Hartree-Fock type      HFTyp           .... RHF
 Total Charge           Charge          ....    0
 Multiplicity           Mult            ....    1
 Number of Electrons    NEL             ....   56
 Basis Dimension        Dim             ....  215
 Nuclear Repulsion      ENuc            ....    301.7819663612 Eh

Convergence Acceleration:
 AO-DIIS                CNVDIIS         .... on
   Start iteration      DIISMaxIt       ....    12
   Startup error        DIISStart       ....  0.200000
   # of expansion vecs  DIISMaxEq       ....     5
   Bias factor          DIISBfac        ....   1.050
   Max. coefficient     DIISMaxC        ....  10.000
 MO-DIIS                CNVKDIIS        .... off
 Trust-Rad. Augm. Hess. CNVTRAH         .... auto
   Auto Start mean grad. ratio tolernc. ....  1.125000
   Auto Start start iteration           ....    50
   Auto Start num. interpolation iter.  ....    10
   Max. Number of Micro iterations      ....    24
   Max. Number of Macro iterations      .... Maxiter - #DIIS iter
   Number of Davidson start vectors     ....     2
   Converg. threshold    (grad. norm)   ....   1.000e-05
   Grad. Scal. Fac. for Micro threshold ....   0.100
   Minimum threshold for Micro iter.    ....   1.000e-02
   NR start threshold (gradient norm)   ....   1.000e-04
   Initial trust radius                 ....   0.400
   Minimum AH scaling param. (alpha)    ....   1.000
   Maximum AH scaling param. (alpha)    .... 1000.000
   Quad. conv. algorithm                .... NR
   White noise on init. David. guess    .... on
   Maximum white noise                  ....   0.010
   Pseudo random numbers                .... off
   Inactive MOs                         .... canonical
   Orbital update algorithm             .... Taylor
   Preconditioner                       .... Diag
   Full preconditioner red. dimension   ....   250
 SOSCF                 CNVSOSCF           .... on
   Start iteration     SOSCFMaxIt         ....   150
   Startup grad/error  SOSCFStart         ....  0.003300
   Hessian update      SOSCFHessUp        .... L-BFGS
   Autom. constraints  SOSCFAutoConstrain .... off
 Level Shifting         CNVShift        .... on
   Level shift para.    LevelShift      ....    0.2500
   Turn off err/grad.   ShiftErr        ....    0.0010
 Zerner damping         CNVZerner       .... off
 Static damping         CNVDamp         .... on
   Fraction old density DampFac         ....    0.7000
   Max. Damping (<1)    DampMax         ....    0.9800
   Min. Damping (>=0)   DampMin         ....    0.0000
   Turn off err/grad.   DampErr         ....    0.1000

SCF Procedure:
 Maximum # iterations   MaxIter         ....   125
 SCF integral mode      SCFMode         .... Direct
   Integral package                     .... SHARK and LIBINT hybrid scheme
 Reset frequency        DirectResetFreq ....    20
 Integral Threshold     Thresh          ....  2.500e-11 Eh
 Primitive CutOff       TCut            ....  2.500e-12 Eh

Convergence Tolerance:
 Convergence Check Mode ConvCheckMode   .... Total+1el-Energy
 Convergence forced     ConvForced      .... 1
 Energy Change          TolE            ....  1.000e-08 Eh
 1-El. energy change                    ....  1.000e-05 Eh
 Orbital Gradient       TolG            ....  1.000e-05
 Orbital Rotation angle TolX            ....  1.000e-05
 DIIS Error             TolErr          ....  5.000e-07

------------------------------
INITIAL GUESS: MODEL POTENTIAL
------------------------------
Loading Hartree-Fock densities                     ... done
Calculating cut-offs                               ... done
Initializing the effective Hamiltonian             ... done
Setting up the integral package (SHARK)            ... done
Starting the Coulomb interaction                   ... done (   0.1 sec)
Making the grid                                    ... done (   0.2 sec)
Mapping shells                                     ... done
Starting the XC term evaluation                    ... done (   0.2 sec)
  promolecular density results
     # of electrons  =     55.996550597
     EX+EC           =    -36.067582889
Transforming the Hamiltonian                       ... done (   0.0 sec)
Diagonalizing the Hamiltonian                      ... done (   0.0 sec)
Back transforming the eigenvectors                 ... done (   0.0 sec)
Now organizing SCF variables                       ... done
                      ------------------
                      INITIAL GUESS DONE (   0.6 sec)
                      ------------------
             **** ENERGY FILE WAS UPDATED (s1_freq_1_wat.en.tmp) ****
Finished Guess after   1.4 sec
Maximum memory used throughout the entire GUESS-calculation: 12.7 MB


           ************************************************************
           *        Program running with 8 parallel MPI-processes     *
           *              working on a common directory               *
           ************************************************************

-------------------------------------------------------------------------------------------
                                      ORCA LEAN-SCF
                              memory conserving SCF solver
-------------------------------------------------------------------------------------------

----------------------------------------D-I-I-S--------------------------------------------
Iteration    Energy (Eh)           Delta-E    RMSDP     MaxDP     DIISErr   Damp  Time(sec)
-------------------------------------------------------------------------------------------
               ***  Starting incremental Fock matrix formation  ***
    1    -418.6460118735237756     0.00e+00  8.77e-03  1.60e-01  1.08e-01  0.700   6.3
    2    -418.6847592620658816    -3.87e-02  6.52e-03  1.17e-01  6.41e-02  0.700   6.0
                               ***Turning on AO-DIIS***
    3    -418.7057980462599289    -2.10e-02  3.41e-03  4.12e-02  4.11e-02  0.700   6.0
    4    -418.7187675488617060    -1.30e-02  7.82e-03  9.66e-02  2.88e-02  0.000   6.2
    5    -418.7477414153636346    -2.90e-02  9.74e-04  1.69e-02  3.51e-03  0.000   6.3
                              *** Initializing SOSCF ***
---------------------------------------S-O-S-C-F--------------------------------------
Iteration    Energy (Eh)           Delta-E    RMSDP     MaxDP     MaxGrad    Time(sec)
--------------------------------------------------------------------------------------
    6    -418.7478714902675847    -1.30e-04  3.98e-04  9.11e-03  3.03e-03     5.6
               *** Restarting incremental Fock matrix formation ***
    7    -418.7479057236271274    -3.42e-05  3.10e-04  6.89e-03  9.04e-04     6.8
    8    -418.7479126747241480    -6.95e-06  1.95e-04  3.96e-03  5.31e-04     5.7
    9    -418.7479211472443694    -8.47e-06  6.07e-05  1.23e-03  8.00e-05     5.0
   10    -418.7479212677496889    -1.21e-07  1.86e-05  4.14e-04  7.66e-05     4.6
   11    -418.7479213339760236    -6.62e-08  1.10e-05  2.23e-04  8.39e-06     4.5
   12    -418.7479213386670835    -4.69e-09  4.64e-06  7.74e-05  3.47e-06     5.0
                 **** Energy Check signals convergence ****

               *****************************************************
               *                     SUCCESS                       *
               *           SCF CONVERGED AFTER  12 CYCLES          *
               *****************************************************

             **** ENERGY FILE WAS UPDATED (s1_freq_1_wat.en.tmp) ****

----------------
TOTAL SCF ENERGY
----------------

Total Energy       :       -418.74792133983374 Eh          -11394.71024 eV

Components:
Nuclear Repulsion  :        301.78196636116252 Eh            8211.90479 eV
Electronic Energy  :       -720.52988770099626 Eh          -19606.61503 eV
One Electron Energy:      -1170.23314206570649 Eh          -31843.66270 eV
Two Electron Energy:        449.70325436471023 Eh           12237.04767 eV

Virial components:
Potential Energy   :       -834.72295132938825 Eh          -22713.96626 eV
Kinetic Energy     :        415.97502998955451 Eh           11319.25603 eV
Virial Ratio       :          2.00666600432807

DFT components:
N(Alpha)           :       28.000056538332 electrons
N(Beta)            :       28.000056538332 electrons
N(Total)           :       56.000113076663 electrons
E(XC)              :      -36.671451318476 Eh       

---------------
SCF CONVERGENCE
---------------

  Last Energy change         ...    4.6911e-09  Tolerance :   1.0000e-08
  Last MAX-Density change    ...    7.7417e-05  Tolerance :   1.0000e-07
  Last RMS-Density change    ...    4.6418e-06  Tolerance :   5.0000e-09
  Last DIIS Error            ...    3.0330e-03  Tolerance :   5.0000e-07
  Last Orbital Gradient      ...    3.4689e-06  Tolerance :   1.0000e-05
  Last Orbital Rotation      ...    1.0379e-05  Tolerance :   1.0000e-05


----------------
ORBITAL ENERGIES
----------------

  NO   OCC          E(Eh)            E(eV) 
   0   2.0000     -19.358201      -526.7634 
   1   2.0000     -19.345350      -526.4137 
   2   2.0000     -19.325824      -525.8824 
   3   2.0000     -19.235090      -523.4134 
   4   2.0000     -10.490300      -285.4556 
   5   2.0000     -10.466920      -284.8194 
   6   2.0000     -10.349218      -281.6165 
   7   2.0000      -1.255417       -34.1616 
   8   2.0000      -1.188732       -32.3470 
   9   2.0000      -1.163542       -31.6616 
  10   2.0000      -1.075420       -29.2637 
  11   2.0000      -0.914921       -24.8963 
  12   2.0000      -0.825014       -22.4498 
  13   2.0000      -0.720774       -19.6133 
  14   2.0000      -0.646703       -17.5977 
  15   2.0000      -0.621350       -16.9078 
  16   2.0000      -0.606288       -16.4979 
  17   2.0000      -0.579504       -15.7691 
  18   2.0000      -0.559375       -15.2214 
  19   2.0000      -0.548945       -14.9375 
  20   2.0000      -0.540996       -14.7212 
  21   2.0000      -0.512159       -13.9365 
  22   2.0000      -0.485493       -13.2109 
  23   2.0000      -0.471167       -12.8211 
  24   2.0000      -0.450482       -12.2583 
  25   2.0000      -0.436076       -11.8662 
  26   2.0000      -0.399671       -10.8756 
  27   2.0000      -0.365741        -9.9523 
  28   0.0000      -0.086006        -2.3403 
  29   0.0000       0.024586         0.6690 
  30   0.0000       0.042554         1.1579 
  31   0.0000       0.048192         1.3114 
  32   0.0000       0.055136         1.5003 
  33   0.0000       0.075999         2.0680 
  34   0.0000       0.078660         2.1404 
  35   0.0000       0.088165         2.3991 
  36   0.0000       0.101075         2.7504 
  37   0.0000       0.107412         2.9228 
  38   0.0000       0.108736         2.9588 
*Only the first 10 virtual orbitals were printed.

                    ********************************
                    * MULLIKEN POPULATION ANALYSIS *
                    ********************************

-----------------------
MULLIKEN ATOMIC CHARGES
-----------------------
   0 C :    0.092974
   1 C :    1.020493
   2 C :    0.560759
   3 H :    0.013288
   4 H :    0.013274
   5 H :   -0.201760
   6 O :   -0.651499
   7 O :   -0.573462
   8 O :   -0.499267
   9 H :    0.223081
  10 O :   -0.310886
  11 H :    0.115912
  12 H :    0.197093
Sum of atomic charges:   -0.0000000

--------------------------------
MULLIKEN REDUCED ORBITAL CHARGES
--------------------------------
  0 C s       :     3.240973  s :     3.240973
      pz      :     0.676008  p :     2.347831
      px      :     0.848027
      py      :     0.823796
      dz2     :     0.011565  d :     0.318222
      dxz     :     0.065131
      dyz     :     0.021936
      dx2y2   :     0.159250
      dxy     :     0.060339

  1 C s       :     3.048413  s :     3.048413
      pz      :     0.725021  p :     1.796364
      px      :     0.459887
      py      :     0.611455
      dz2     :    -0.002490  d :     0.134730
      dxz     :     0.007744
      dyz     :     0.053683
      dx2y2   :     0.077854
      dxy     :    -0.002062

  2 C s       :     3.011114  s :     3.011114
      pz      :     0.873631  p :     2.468540
      px      :     0.993734
      py      :     0.601175
      dz2     :    -0.008321  d :    -0.040413
      dxz     :    -0.018074
      dyz     :     0.003381
      dx2y2   :     0.007294
      dxy     :    -0.024692

  3 H s       :     0.990858  s :     0.990858
      pz      :     0.008002  p :    -0.004146
      px      :    -0.010125
      py      :    -0.002022

  4 H s       :     0.990878  s :     0.990878
      pz      :     0.008009  p :    -0.004152
      px      :    -0.010142
      py      :    -0.002019

  5 H s       :     1.187445  s :     1.187445
      pz      :    -0.010606  p :     0.014315
      px      :     0.025541
      py      :    -0.000620

  6 O s       :     4.128948  s :     4.128948
      pz      :     1.347354  p :     4.484742
      px      :     1.856376
      py      :     1.281011
      dz2     :     0.001409  d :     0.037810
      dxz     :     0.001161
      dyz     :     0.017641
      dx2y2   :     0.009299
      dxy     :     0.008299

  7 O s       :     4.052596  s :     4.052596
      pz      :     1.399621  p :     4.483864
      px      :     1.776401
      py      :     1.307842
      dz2     :     0.001963  d :     0.037002
      dxz     :     0.001762
      dyz     :     0.016682
      dx2y2   :     0.006941
      dxy     :     0.009653

  8 O s       :     3.981648  s :     3.981648
      pz      :     1.754736  p :     4.496605
      px      :     1.509454
      py      :     1.232415
      dz2     :     0.001070  d :     0.021013
      dxz     :     0.009619
      dyz     :     0.004369
      dx2y2   :     0.003869
      dxy     :     0.002086

  9 H s       :     0.703770  s :     0.703770
      pz      :     0.023852  p :     0.073148
      px      :     0.031521
      py      :     0.017775

 10 O s       :     3.809400  s :     3.809400
      pz      :     1.903963  p :     4.509850
      px      :     1.344695
      py      :     1.261192
      dz2     :    -0.001922  d :    -0.008365
      dxz     :     0.001827
      dyz     :     0.001485
      dx2y2   :    -0.010900
      dxy     :     0.001145

 11 H s       :     0.780798  s :     0.780798
      pz      :     0.047286  p :     0.103290
      px      :     0.024395
      py      :     0.031609

 12 H s       :     0.739482  s :     0.739482
      pz      :     0.045483  p :     0.063425
      px      :     0.003177
      py      :     0.014765



                     *******************************
                     * LOEWDIN POPULATION ANALYSIS *
                     *******************************

----------------------
LOEWDIN ATOMIC CHARGES
----------------------
   0 C :   -0.240801
   1 C :   -0.309958
   2 C :    0.203482
   3 H :    0.016708
   4 H :    0.016703
   5 H :   -0.005098
   6 O :    0.130196
   7 O :    0.152436
   8 O :    0.271597
   9 H :   -0.091400
  10 O :    0.193627
  11 H :   -0.129409
  12 H :   -0.208080

-------------------------------
LOEWDIN REDUCED ORBITAL CHARGES
-------------------------------
  0 C s       :     2.606262  s :     2.606262
      pz      :     0.586956  p :     2.467090
      px      :     0.952100
      py      :     0.928034
      dz2     :     0.100503  d :     1.167449
      dxz     :     0.127297
      dyz     :     0.165115
      dx2y2   :     0.369780
      dxy     :     0.404754

  1 C s       :     2.572653  s :     2.572653
      pz      :     0.636354  p :     2.427010
      px      :     0.901680
      py      :     0.888975
      dz2     :     0.118592  d :     1.310295
      dxz     :     0.100885
      dyz     :     0.237534
      dx2y2   :     0.406811
      dxy     :     0.446472

  2 C s       :     2.606360  s :     2.606360
      pz      :     0.944326  p :     2.801089
      px      :     0.915584
      py      :     0.941179
      dz2     :     0.066777  d :     0.389069
      dxz     :     0.087658
      dyz     :     0.028428
      dx2y2   :     0.108628
      dxy     :     0.097579

  3 H s       :     0.712300  s :     0.712300
      pz      :     0.115836  p :     0.270992
      px      :     0.086353
      py      :     0.068803

  4 H s       :     0.712304  s :     0.712304
      pz      :     0.115861  p :     0.270993
      px      :     0.086329
      py      :     0.068803

  5 H s       :     0.714791  s :     0.714791
      pz      :     0.072960  p :     0.290307
      px      :     0.090557
      py      :     0.126790

  6 O s       :     3.394780  s :     3.394780
      pz      :     1.227729  p :     4.303642
      px      :     1.656702
      py      :     1.419211
      dz2     :     0.020679  d :     0.171381
      dxz     :     0.001378
      dyz     :     0.027194
      dx2y2   :     0.061934
      dxy     :     0.060196

  7 O s       :     3.361072  s :     3.361072
      pz      :     1.281590  p :     4.313127
      px      :     1.589877
      py      :     1.441660
      dz2     :     0.021391  d :     0.173366
      dxz     :     0.003836
      dyz     :     0.030484
      dx2y2   :     0.060227
      dxy     :     0.057427

  8 O s       :     3.245514  s :     3.245514
      pz      :     1.552544  p :     4.304829
      px      :     1.478007
      py      :     1.274278
      dz2     :     0.024115  d :     0.178060
      dxz     :     0.014064
      dyz     :     0.017390
      dx2y2   :     0.045428
      dxy     :     0.077063

  9 H s       :     0.581975  s :     0.581975
      pz      :     0.110547  p :     0.509425
      px      :     0.230208
      py      :     0.168669

 10 O s       :     3.263758  s :     3.263758
      pz      :     1.709005  p :     4.489240
      px      :     1.421459
      py      :     1.358775
      dz2     :     0.010598  d :     0.053375
      dxz     :     0.000381
      dyz     :     0.000282
      dx2y2   :     0.040022
      dxy     :     0.002092

 11 H s       :     0.636221  s :     0.636221
      pz      :     0.147242  p :     0.493188
      px      :     0.118992
      py      :     0.226954

 12 H s       :     0.606913  s :     0.606913
      pz      :     0.147981  p :     0.601167
      px      :     0.339720
      py      :     0.113466



                      *****************************
                      * MAYER POPULATION ANALYSIS *
                      *****************************

  NA   - Mulliken gross atomic population
  ZA   - Total nuclear charge
  QA   - Mulliken gross atomic charge
  VA   - Mayer's total valence
  BVA  - Mayer's bonded valence
  FA   - Mayer's free valence

  ATOM       NA         ZA         QA         VA         BVA        FA
  0 C      5.9070     6.0000     0.0930     3.9267     3.9267    -0.0000
  1 C      4.9795     6.0000     1.0205     2.6308     2.6308    -0.0000
  2 C      5.4392     6.0000     0.5608     3.8447     3.8447    -0.0000
  3 H      0.9867     1.0000     0.0133     0.8883     0.8883     0.0000
  4 H      0.9867     1.0000     0.0133     0.8882     0.8882    -0.0000
  5 H      1.2018     1.0000    -0.2018     0.8775     0.8775    -0.0000
  6 O      8.6515     8.0000    -0.6515     1.7075     1.7075     0.0000
  7 O      8.5735     8.0000    -0.5735     1.8309     1.8309    -0.0000
  8 O      8.4993     8.0000    -0.4993     1.8847     1.8847    -0.0000
  9 H      0.7769     1.0000     0.2231     0.9801     0.9801    -0.0000
 10 O      8.3109     8.0000    -0.3109     1.9259     1.9259    -0.0000
 11 H      0.8841     1.0000     0.1159     1.0251     1.0251    -0.0000
 12 H      0.8029     1.0000     0.1971     0.9353     0.9353     0.0000

  Mayer bond orders larger than 0.100000
B(  0-C ,  1-C ) :   0.5478 B(  0-C ,  2-C ) :   1.3967 B(  0-C ,  3-H ) :   0.1415 
B(  0-C ,  4-H ) :   0.1413 B(  0-C ,  5-H ) :   0.2505 B(  0-C ,  6-O ) :   1.4743 
B(  0-C ,  7-O ) :  -0.1271 B(  0-C ,  8-O ) :   0.1402 B(  1-C ,  2-C ) :  -0.1322 
B(  1-C ,  5-H ) :  -0.1785 B(  1-C ,  7-O ) :   1.7051 B(  1-C ,  8-O ) :   0.7584 
B(  2-C ,  3-H ) :   0.8525 B(  2-C ,  4-H ) :   0.8524 B(  2-C ,  5-H ) :   0.8538 
B(  6-O ,  9-H ) :   0.1101 B(  8-O ,  9-H ) :   0.9302 B( 10-O , 11-H ) :   1.0496 
B( 10-O , 12-H ) :   0.9082 

-------
TIMINGS
-------

Total SCF time: 0 days 0 hours 1 min 13 sec 

Total time                  ....      73.734 sec
Sum of individual times     ....      68.619 sec  ( 93.1%)

SCF preparation             ....       0.581 sec  (  0.8%)
Fock matrix formation       ....      66.998 sec  ( 90.9%)
  Startup                   ....       0.145 sec  (  0.2% of F)
  Coulomb+Exchange Fock     ....      67.248 sec  (100.4% of F)
  XC integration            ....       4.250 sec  (  6.3% of F)
    XC Preparation          ....       0.000 sec  (  0.0% of XC)
    Basis function eval.    ....       1.125 sec  ( 26.5% of XC)
    Density eval.           ....       0.588 sec  ( 13.8% of XC)
    XC-Functional eval.     ....       0.304 sec  (  7.2% of XC)
    XC-Potential eval.      ....       1.056 sec  ( 24.9% of XC)
Diagonalization             ....       0.000 sec  (  0.0%)
Density matrix formation    ....       0.113 sec  (  0.2%)
Total Energy calculation    ....       0.356 sec  (  0.5%)
Population analysis         ....       0.028 sec  (  0.0%)
Orbital Transformation      ....       0.045 sec  (  0.1%)
Orbital Orthonormalization  ....       0.000 sec  (  0.0%)
DIIS solution               ....       0.301 sec  (  0.4%)
SOSCF solution              ....       0.179 sec  (  0.2%)
Finished LeanSCF after  73.8 sec

Maximum memory used throughout the entire LEANSCF-calculation: 14.8 MB


           ************************************************************
           *        Program running with 8 parallel MPI-processes     *
           *              working on a common directory               *
           ************************************************************

------------------------------------------------------------------------------
                         ORCA PROPERTY INTEGRAL CALCULATIONS
------------------------------------------------------------------------------

GBWName                                   ... s1_freq_1_wat.gbw
Number of atoms                           ...     13
Number of basis functions                 ...    257
Max core memory                           ...   8000 MB

Dipole integrals                          ... YES
Quadrupole integrals                      ...  NO
Linear momentum integrals                 ... YES
Angular momentum integrals                ... YES
Higher moments length integrals           ...  NO
Higher moments velocity integrals         ...  NO
Kinetic energy integrals                  ...  NO
GIAO right hand sides                     ...  NO
GIAO dipole derivative integrals          ...  NO
SOC integrals                             ...  NO
EPR diamagnetic integrals (GIAO)          ...  NO
EPR gauge integrals                       ...  NO
Field gradient integrals                  ...  NO (   0 nuclei)
Spin-dipole/Fermi contact integrals       ...  NO (   0 nuclei)
Contact density integrals                 ...  NO (   0 nuclei)
Nucleus-orbit integrals                   ...  NO (   0 nuclei)
Geometric perturbations                   ...  NO (  13 nuclei)

Choice of electric origin   ... Center of mass
Position of electric origin ... (  1.2920,  0.3754,  0.0014) 
Choice of magnetic origin   ... GIAO
Position of magnetic origin ... (  0.0000,  0.0000,  0.0000) 

Calculating integrals                     ... Electric Dipole (Length)     done (  0.0 sec)
Calculating integrals                     ... Linear Momentum              done (  0.1 sec)
Calculating integrals                     ... Angular Momentum  (ElOri)    done (  0.1 sec)

Property integrals calculated in   0.2 sec

Maximum memory used throughout the entire PROPINT-calculation: 13.0 MB


           ************************************************************
           *        Program running with 8 parallel MPI-processes     *
           *              working on a common directory               *
           ************************************************************
------------------------------------------------------------------------------
                        ORCA TD-DFT/TDA CALCULATION
------------------------------------------------------------------------------

Input orbitals are from        ... s1_freq_1_wat.gbw
CI-vector output               ... s1_freq_1_wat.cis
Solver                         ... FN-2001
Tamm-Dancoff approximation     ... operative
CIS-Integral strategy          ... AO-integrals
Integral handling              ... AO integral Direct
Max. core memory used          ... 8000 MB
Reference state                ... RHF
Generation of triplets         ... off
Follow IRoot                   ... off
Number of operators            ... 1
Orbital ranges used for CIS calculation:
 Operator 0:  Orbitals   7... 27  to  28...214
XAS localization array:
 Operator 0:  Orbitals  -1... -1

-------------------
XC-INTEGRATION GRID
-------------------

General Integration Accuracy     IntAcc      ... 3.467
Radial Grid Type                 RadialGrid  ... OptM3 with GC (2021)
Angular Grid (max. ang.)         AngularGrid ... 1 (Lebedev-50)
Angular grid pruning method      GridPruning ... 4 (adaptive)
Weight generation scheme         WeightScheme... mBecke (2022)
Basis function cutoff            BFCut       ... 1.0000e-11
Integration weight cutoff        WCut        ... 1.0000e-14
Partially contracted basis set               ... off
Rotationally invariant grid construction     ... off
Angular grids for H and He will be reduced by one unit
Diffuse basis detected: some atoms will have their outermost
                        angular grid increased by 1.

Total number of grid points                  ...     9521
Total number of batches                      ...      156
Average number of points per batch           ...       61
Average number of grid points per atom       ...      732

---------------
TD-DFT XC SETUP
---------------

DFT calculation                         ... on
Name of the grid file                   ... s1_freq_1_wat.grid_cis.tmp
Functional (TD-DFT)
  Functional kind                       .... Exchange-Correlation
  Functional name                       .... wB97X-D range-separated functional
  Functional family                     .... Hybrid GGA
  Functional refs                              
    [ 0] J.-D. Chai and M. Head-Gordon.,  Phys. Chem. Chem. Phys. 10, 6615-6620 (2008), doi: 10.1039/B810189B
  Fraction of HF Exchange (short range) .... 0.2220
  Fraction of HF Exchange ( int64 range )  .... 1.0000
  Range separation parameter mu         .... 0.2000
  Functional external parameters        .... 18
    Parameter  0 _cx0       =  7.779640e-01 : u^0 coefficient for exchange
    Parameter  1 _cx1       =  6.611600e-01 : u^1 coefficient for exchange
    Parameter  2 _cx2       =  5.745410e-01 : u^2 coefficient for exchange
    Parameter  3 _cx3       = -5.256710e+00 : u^3 coefficient for exchange
    Parameter  4 _cx4       =  1.163860e+01 : u^4 coefficient for exchange
    Parameter  5 _css0      =  1.000000e+00 : u^0 coefficient for same-spin correlation
    Parameter  6 _css1      = -6.905390e+00 : u^1 coefficient for same-spin correlation
    Parameter  7 _css2      =  3.133430e+01 : u^2 coefficient for same-spin correlation
    Parameter  8 _css3      = -5.105330e+01 : u^3 coefficient for same-spin correlation
    Parameter  9 _css4      =  2.644230e+01 : u^4 coefficient for same-spin correlation
    Parameter 10 _cos0      =  1.000000e+00 : u^0 coefficient for opposite-spin correlation
    Parameter 11 _cos1      =  1.794130e+00 : u^1 coefficient for opposite-spin correlation
    Parameter 12 _cos2      = -1.204770e+01 : u^2 coefficient for opposite-spin correlation
    Parameter 13 _cos3      =  1.408470e+01 : u^3 coefficient for opposite-spin correlation
    Parameter 14 _cos4      = -8.508090e+00 : u^4 coefficient for opposite-spin correlation
    Parameter 15 _alpha     =  1.000000e+00 : fraction of HF exchange
    Parameter 16 _beta      = -7.779640e-01 : fraction of short-range exchange
    Parameter 17 _omega     =  2.000000e-01 : range-separation constant
Hybrid DFT                              ... on
   Exchange mixing (TD-DFT)             ...  0.222
   GGA exch. scaling (TD-DFT)           ...  1.000
   GGA corr. scaling (TD-DFT)           ...  1.000
Range-Separated Exchange                ... on
   Range Range separation parameter mu  .... 0.200
   Max. amount of RS exchange (TD-DFT)  ...  0.778

Building densities             ... done
Calculating rho(r) on the grid ... done
Building xc-kernel on the grid ... done
                    *** TD-DFT CALCULATION INITIALIZED ***

------------------------
DAVIDSON-DIAGONALIZATION
------------------------

Dimension of the eigenvalue problem            ...   3927
Number of roots to be determined               ...     10
Maximum size of the expansion space            ...    100
Maximum number of iterations                   ...    100
Convergence tolerance for the residual         ...    2.500e-07
Convergence tolerance for the energies         ...    2.500e-07
Orthogonality tolerance                        ...    1.000e-14
Level Shift                                    ...    0.000e+00
Constructing the preconditioner                ... o.k.
Building the initial guess                     ... o.k.
Number of trial vectors determined             ...    100


                       ****Iteration    0****
   Time for iteration     :  TOTAL=111.4 TRAFO=0.1 2-EL=109.7 XC=1.6
   Size of expansion space: 30
   Lowest Energy          :     0.116109773959
   Maximum Energy change  :     0.302491287871 (vector 9)
   Maximum residual norm  :     0.048977201530

                       ****Iteration    1****
   Time for iteration     :  TOTAL=34.2 TRAFO=0.0 2-EL=33.8 XC=0.4
   Size of expansion space: 40
   Lowest Energy          :     0.111022816668
   Maximum Energy change  :     0.024510326498 (vector 8)
   Maximum residual norm  :     0.005799553222

                       ****Iteration    2****
   Time for iteration     :  TOTAL=33.6 TRAFO=0.0 2-EL=33.1 XC=0.4
   Size of expansion space: 50
   Lowest Energy          :     0.110767539425
   Maximum Energy change  :     0.004437808876 (vector 7)
   Maximum residual norm  :     0.000733389105

                       ****Iteration    3****
   Time for iteration     :  TOTAL=33.2 TRAFO=0.0 2-EL=32.7 XC=0.5
   Size of expansion space: 60
   Lowest Energy          :     0.110758917347
   Maximum Energy change  :     0.000868177409 (vector 7)
   Maximum residual norm  :     0.000081042936

                       ****Iteration    4****
   Time for iteration     :  TOTAL=35.4 TRAFO=0.0 2-EL=34.9 XC=0.4
   Size of expansion space: 70
   Lowest Energy          :     0.110758690921
   Maximum Energy change  :     0.000114011386 (vector 7)
   Maximum residual norm  :     0.000008698912

                       ****Iteration    5****
   Time for iteration     :  TOTAL=34.8 TRAFO=0.0 2-EL=34.3 XC=0.5
   Size of expansion space: 80
   Lowest Energy          :     0.110758685748
   Maximum Energy change  :     0.000010525697 (vector 7)
   Maximum residual norm  :     0.000000539041

                       ****Iteration    6****
   Time for iteration     :  TOTAL=33.5 TRAFO=0.0 2-EL=33.1 XC=0.5
   Size of expansion space: 90
   Lowest Energy          :     0.110758685664
   Maximum Energy change  :     0.000000656800 (vector 7)
   Maximum residual norm  :     0.000000079260

      *** CONVERGENCE OF RESIDUAL NORM REACHED ***

Storing the converged CI vectors               ... s1_freq_1_wat.cis1

                 *** DAVIDSON DONE ***

Total time for solving the CIS problem:   318.266sec

------------------------------------
TD-DFT/TDA EXCITED STATES (SINGLETS)
------------------------------------

the weight of the individual excitations are printed if larger than 1.0e-02

STATE  1:  E=   0.110759 au      3.014 eV    24308.7 cm**-1 <S**2> =   0.000000 Mult 1
    25a ->  28a  :     0.103307 (c=  0.32141461)
    26a ->  28a  :     0.877236 (c= -0.93660902)

STATE  2:  E=   0.156088 au      4.247 eV    34257.4 cm**-1 <S**2> =   0.000000 Mult 1
    27a ->  28a  :     0.981910 (c=  0.99091380)
    27a ->  35a  :     0.014719 (c=  0.12132067)

STATE  3:  E=   0.158642 au      4.317 eV    34818.0 cm**-1 <S**2> =   0.000000 Mult 1
    23a ->  28a  :     0.325477 (c=  0.57050612)
    25a ->  28a  :     0.555028 (c= -0.74500171)
    26a ->  28a  :     0.068519 (c= -0.26176044)
    26a ->  35a  :     0.034168 (c= -0.18484518)

STATE  4:  E=   0.213796 au      5.818 eV    46922.8 cm**-1 <S**2> =   0.000000 Mult 1
    22a ->  28a  :     0.025486 (c= -0.15964453)
    24a ->  28a  :     0.919016 (c= -0.95865338)

STATE  5:  E=   0.233018 au      6.341 eV    51141.5 cm**-1 <S**2> =   0.000000 Mult 1
    18a ->  28a  :     0.017836 (c=  0.13355055)
    20a ->  28a  :     0.014215 (c= -0.11922602)
    21a ->  28a  :     0.562176 (c=  0.74978391)
    23a ->  28a  :     0.248827 (c= -0.49882537)
    25a ->  28a  :     0.120110 (c= -0.34656863)
    26a ->  28a  :     0.010936 (c= -0.10457404)

STATE  6:  E=   0.245682 au      6.685 eV    53920.9 cm**-1 <S**2> =   0.000000 Mult 1
    21a ->  28a  :     0.403052 (c=  0.63486344)
    23a ->  28a  :     0.363669 (c=  0.60304961)
    25a ->  28a  :     0.187628 (c=  0.43316033)
    26a ->  28a  :     0.021939 (c=  0.14811909)

STATE  7:  E=   0.258727 au      7.040 eV    56784.1 cm**-1 <S**2> =   0.000000 Mult 1
    17a ->  28a  :     0.081894 (c= -0.28617191)
    20a ->  28a  :     0.886058 (c= -0.94130641)

STATE  8:  E=   0.259932 au      7.073 eV    57048.4 cm**-1 <S**2> =   0.000000 Mult 1
    19a ->  28a  :     0.026998 (c=  0.16431158)
    22a ->  28a  :     0.857163 (c=  0.92583101)
    24a ->  28a  :     0.018077 (c= -0.13445244)
    26a ->  30a  :     0.014042 (c= -0.11849699)

STATE  9:  E=   0.264679 au      7.202 eV    58090.4 cm**-1 <S**2> =   0.000000 Mult 1
    27a ->  29a  :     0.144927 (c= -0.38069271)
    27a ->  30a  :     0.294471 (c=  0.54265145)
    27a ->  32a  :     0.134940 (c=  0.36734120)
    27a ->  33a  :     0.193151 (c=  0.43948956)
    27a ->  34a  :     0.142828 (c=  0.37792629)
    27a ->  40a  :     0.020259 (c=  0.14233270)
    27a ->  45a  :     0.014106 (c= -0.11876972)
    27a ->  47a  :     0.016605 (c=  0.12886180)

STATE 10:  E=   0.290559 au      7.907 eV    63770.4 cm**-1 <S**2> =   0.000000 Mult 1
    19a ->  28a  :     0.080572 (c= -0.28385295)
    25a ->  29a  :     0.037295 (c= -0.19311867)
    26a ->  29a  :     0.582755 (c=  0.76338361)
    26a ->  30a  :     0.126238 (c= -0.35529930)
    26a ->  33a  :     0.034487 (c=  0.18570618)
    26a ->  34a  :     0.017819 (c= -0.13348904)
    26a ->  36a  :     0.015992 (c= -0.12645789)
    26a ->  40a  :     0.038689 (c= -0.19669489)

Storing amplitudes in GBW file ... 
... GBW file created

------------------------------------------
NATURAL TRANSITION ORBITALS FOR STATE    1
------------------------------------------

Making the (pseudo)densities                       ... done
Solving eigenvalue problem for the occupied space  ... done
Solving eigenvalue problem for the virtual space   ... done
Natural Transition Orbitals were saved in s1_freq_1_wat.s1.nto
Threshold for printing occupation numbers 0.001000

 E=   0.110759 au      3.014 eV    24308.7 cm**-1
    27a ->  28a  : n=  0.98523542
    26a ->  29a  : n=  0.01421963


------------------------------------------
NATURAL TRANSITION ORBITALS FOR STATE    2
------------------------------------------

Making the (pseudo)densities                       ... done
Solving eigenvalue problem for the occupied space  ... done
Solving eigenvalue problem for the virtual space   ... done
Natural Transition Orbitals were saved in s1_freq_1_wat.s2.nto
Threshold for printing occupation numbers 0.001000

 E=   0.156088 au      4.247 eV    34257.4 cm**-1
    27a ->  28a  : n=  0.99929328


------------------------------------------
NATURAL TRANSITION ORBITALS FOR STATE    3
------------------------------------------

Making the (pseudo)densities                       ... done
Solving eigenvalue problem for the occupied space  ... done
Solving eigenvalue problem for the virtual space   ... done
Natural Transition Orbitals were saved in s1_freq_1_wat.s3.nto
Threshold for printing occupation numbers 0.001000

 E=   0.158642 au      4.317 eV    34818.0 cm**-1
    27a ->  28a  : n=  0.96169858
    26a ->  29a  : n=  0.03775700


------------------------------------------
NATURAL TRANSITION ORBITALS FOR STATE    4
------------------------------------------

Making the (pseudo)densities                       ... done
Solving eigenvalue problem for the occupied space  ... done
Solving eigenvalue problem for the virtual space   ... done
Natural Transition Orbitals were saved in s1_freq_1_wat.s4.nto
Threshold for printing occupation numbers 0.001000

 E=   0.213796 au      5.818 eV    46922.8 cm**-1
    27a ->  28a  : n=  0.96622445
    26a ->  29a  : n=  0.01737865
    25a ->  30a  : n=  0.00449229
    24a ->  31a  : n=  0.00350254
    23a ->  32a  : n=  0.00294137
    22a ->  33a  : n=  0.00265310
    21a ->  34a  : n=  0.00108350


------------------------------------------
NATURAL TRANSITION ORBITALS FOR STATE    5
------------------------------------------

Making the (pseudo)densities                       ... done
Solving eigenvalue problem for the occupied space  ... done
Solving eigenvalue problem for the virtual space   ... done
Natural Transition Orbitals were saved in s1_freq_1_wat.s5.nto
Threshold for printing occupation numbers 0.001000

 E=   0.233018 au      6.341 eV    51141.5 cm**-1
    27a ->  28a  : n=  0.98659782
    26a ->  29a  : n=  0.01212500


------------------------------------------
NATURAL TRANSITION ORBITALS FOR STATE    6
------------------------------------------

Making the (pseudo)densities                       ... done
Solving eigenvalue problem for the occupied space  ... done
Solving eigenvalue problem for the virtual space   ... done
Natural Transition Orbitals were saved in s1_freq_1_wat.s6.nto
Threshold for printing occupation numbers 0.001000

 E=   0.245682 au      6.685 eV    53920.9 cm**-1
    27a ->  28a  : n=  0.98982970
    26a ->  29a  : n=  0.00935088


------------------------------------------
NATURAL TRANSITION ORBITALS FOR STATE    7
------------------------------------------

Making the (pseudo)densities                       ... done
Solving eigenvalue problem for the occupied space  ... done
Solving eigenvalue problem for the virtual space   ... done
Natural Transition Orbitals were saved in s1_freq_1_wat.s7.nto
Threshold for printing occupation numbers 0.001000

 E=   0.258727 au      7.040 eV    56784.1 cm**-1
    27a ->  28a  : n=  0.99021495
    26a ->  29a  : n=  0.00822992


------------------------------------------
NATURAL TRANSITION ORBITALS FOR STATE    8
------------------------------------------

Making the (pseudo)densities                       ... done
Solving eigenvalue problem for the occupied space  ... done
Solving eigenvalue problem for the virtual space   ... done
Natural Transition Orbitals were saved in s1_freq_1_wat.s8.nto
Threshold for printing occupation numbers 0.001000

 E=   0.259932 au      7.073 eV    57048.4 cm**-1
    27a ->  28a  : n=  0.91371022
    26a ->  29a  : n=  0.05244245
    25a ->  30a  : n=  0.01522874
    24a ->  31a  : n=  0.00725565
    23a ->  32a  : n=  0.00534099
    22a ->  33a  : n=  0.00187069
    21a ->  34a  : n=  0.00139957


------------------------------------------
NATURAL TRANSITION ORBITALS FOR STATE    9
------------------------------------------

Making the (pseudo)densities                       ... done
Solving eigenvalue problem for the occupied space  ... done
Solving eigenvalue problem for the virtual space   ... done
Natural Transition Orbitals were saved in s1_freq_1_wat.s9.nto
Threshold for printing occupation numbers 0.001000

 E=   0.264679 au      7.202 eV    58090.4 cm**-1
    27a ->  28a  : n=  0.99928534


------------------------------------------
NATURAL TRANSITION ORBITALS FOR STATE   10
------------------------------------------

Making the (pseudo)densities                       ... done
Solving eigenvalue problem for the occupied space  ... done
Solving eigenvalue problem for the virtual space   ... done
Natural Transition Orbitals were saved in s1_freq_1_wat.s10.nto
Threshold for printing occupation numbers 0.001000

 E=   0.290559 au      7.907 eV    63770.4 cm**-1
    27a ->  28a  : n=  0.88416480
    26a ->  29a  : n=  0.08379842
    25a ->  30a  : n=  0.02778525
    24a ->  31a  : n=  0.00196581


-----------------------------
TD-DFT/TDA-EXCITATION SPECTRA
-----------------------------

Center of mass = (  1.2920,  0.3754,  0.0014)
Generating CIS transition densities           ... done

----------------------------------------------------------------------------------------------------
                     ABSORPTION SPECTRUM VIA TRANSITION ELECTRIC DIPOLE MOMENTS    
----------------------------------------------------------------------------------------------------
     Transition      Energy     Energy  Wavelength fosc(D2)      D2        DX        DY        DZ   
                      (eV)      (cm-1)    (nm)                 (au**2)    (au)      (au)      (au)  
----------------------------------------------------------------------------------------------------
  0-1A  ->  1-1A    3.013897   24308.7   411.4   0.000018955   0.00026  -0.00003   0.00000  -0.01602
  0-1A  ->  2-1A    4.247374   34257.4   291.9   0.008339424   0.08014   0.26290   0.10499   0.00017
  0-1A  ->  3-1A    4.316877   34818.0   287.2   0.000085276   0.00081   0.00009   0.00005   0.02840
  0-1A  ->  4-1A    5.817691   46922.8   213.1   0.043317568   0.30392   0.08120   0.54527   0.00021
  0-1A  ->  5-1A    6.340741   51141.5   195.5   0.002970321   0.01912  -0.00008   0.00000  -0.13828
  0-1A  ->  6-1A    6.685334   53920.9   185.5   0.001890458   0.01154   0.00045   0.00029  -0.10743
  0-1A  ->  7-1A    7.040331   56784.1   176.1   0.000711869   0.00413   0.00027   0.00129   0.06423
  0-1A  ->  8-1A    7.073098   57048.4   175.3   0.185733690   1.07182   0.08407   1.03187  -0.00008
  0-1A  ->  9-1A    7.202290   58090.4   172.1   0.046817373   0.26533  -0.00063  -0.00013   0.51510
  0-1A  -> 10-1A    7.906520   63770.4   156.8   0.007501275   0.03873   0.19649  -0.01068   0.00179

----------------------------------------------------------------------------------------------------
                     ABSORPTION SPECTRUM VIA TRANSITION VELOCITY DIPOLE MOMENTS    
----------------------------------------------------------------------------------------------------
     Transition      Energy     Energy  Wavelength fosc(P2)      P2        PX        PY        PZ   
                      (eV)      (cm-1)    (nm)                 (au**2)    (au)      (au)      (au)  
----------------------------------------------------------------------------------------------------
  0-1A  ->  1-1A    3.013897   24308.7   411.4   0.001776724   0.00030  -0.00001   0.00000   0.01718
  0-1A  ->  2-1A    4.247374   34257.4   291.9   0.002055960   0.00048  -0.02188   0.00166  -0.00002
  0-1A  ->  3-1A    4.316877   34818.0   287.2   0.000837678   0.00020  -0.00000   0.00001   0.01412
  0-1A  ->  4-1A    5.817691   46922.8   213.1   0.016098238   0.00516  -0.05178   0.04981  -0.00001
  0-1A  ->  5-1A    6.340741   51141.5   195.5   0.000272992   0.00010  -0.00001   0.00002  -0.00977
  0-1A  ->  6-1A    6.685334   53920.9   185.5   0.000322771   0.00012  -0.00006  -0.00001   0.01091
  0-1A  ->  7-1A    7.040331   56784.1   176.1   0.000002849   0.00000  -0.00002   0.00002  -0.00105
  0-1A  ->  8-1A    7.073098   57048.4   175.3   0.000353866   0.00014   0.00865   0.00795  -0.00002
  0-1A  ->  9-1A    7.202290   58090.4   172.1   0.040882188   0.01623   0.00017   0.00005  -0.12740
  0-1A  -> 10-1A    7.906520   63770.4   156.8   0.001431307   0.00062  -0.02445   0.00507   0.00055

------------------------------------------------------------------------------------------
                     CD SPECTRUM VIA TRANSITION ELECTRIC DIPOLE MOMENTS    
------------------------------------------------------------------------------------------
     Transition      Energy     Energy  Wavelength    R        MX        MY        MZ   
                      (eV)      (cm-1)    (nm)   (1e40*cgs)   (au)      (au)      (au)  
------------------------------------------------------------------------------------------
  0-1A  ->  1-1A    3.013897   24308.7   411.4   -0.00080  -0.00520   0.19310  -0.00006
  0-1A  ->  2-1A    4.247374   34257.4   291.9   -0.02433   0.00007   0.00026   0.02626
  0-1A  ->  3-1A    4.316877   34818.0   287.2    0.01998  -0.19215  -0.47047  -0.00005
  0-1A  ->  4-1A    5.817691   46922.8   213.1    0.01970  -0.00013  -0.00007   0.03736
  0-1A  ->  5-1A    6.340741   51141.5   195.5   -0.00092   0.06505   0.08356  -0.00005
  0-1A  ->  6-1A    6.685334   53920.9   185.5    0.03656  -0.13102  -0.06493  -0.00000
  0-1A  ->  7-1A    7.040331   56784.1   176.1    0.02498   0.28162  -0.11202   0.00023
  0-1A  ->  8-1A    7.073098   57048.4   175.3   -0.00491  -0.00031   0.00005   0.15271
  0-1A  ->  9-1A    7.202290   58090.4   172.1   -0.00675  -0.12210   0.43999  -0.00001
  0-1A  -> 10-1A    7.906520   63770.4   156.8   -0.27596  -0.00146  -0.00603   0.45123

------------------------------------------------------------------------------------------
                     CD SPECTRUM VIA TRANSITION VELOCITY DIPOLE MOMENTS    
------------------------------------------------------------------------------------------
     Transition      Energy     Energy  Wavelength    R        MX        MY        MZ   
                      (eV)      (cm-1)    (nm)   (1e40*cgs)   (au)      (au)      (au)  
------------------------------------------------------------------------------------------
  0-1A  ->  1-1A    3.013897   24308.7   411.4   -0.00155  -0.00520   0.19310  -0.00006
  0-1A  ->  2-1A    4.247374   34257.4   291.9   -0.00482   0.00007   0.00026   0.02626
  0-1A  ->  3-1A    4.316877   34818.0   287.2   -0.01204  -0.19215  -0.47047  -0.00005
  0-1A  ->  4-1A    5.817691   46922.8   213.1    0.00678  -0.00013  -0.00007   0.03736
  0-1A  ->  5-1A    6.340741   51141.5   195.5    0.00338   0.06505   0.08356  -0.00005
  0-1A  ->  6-1A    6.685334   53920.9   185.5    0.01651  -0.13102  -0.06493  -0.00000
  0-1A  ->  7-1A    7.040331   56784.1   176.1   -0.01384   0.28162  -0.11202   0.00023
  0-1A  ->  8-1A    7.073098   57048.4   175.3   -0.00938  -0.00031   0.00005   0.15271
  0-1A  ->  9-1A    7.202290   58090.4   172.1    0.00482  -0.12210   0.43999  -0.00001
  0-1A  -> 10-1A    7.906520   63770.4   156.8    0.40772  -0.00146  -0.00603   0.45123

Total run time:      319.835 sec

           *** ORCA-CIS/TD-DFT FINISHED WITHOUT ERROR ***
-----------------------
CIS/TD-DFT TOTAL ENERGY
-----------------------

    E(SCF)  =   -418.747921340 Eh
    DE(CIS) =      0.110758686 Eh (Root  1)
    ----------------------------- ---------
    E(tot)  =   -418.637162654 Eh


------------------------
TD-DFT GRADIENT XC SETUP
------------------------

Building densities                     ... done
Calculating rho(r) on the grid         ... done
Building xc-kernel on the grid         ... done
Building xc 3rd derivative on the grid ... done
                *** TD-DFT GRADIENT CALCULATION INITIALIZED ***

--------------------------
TD-DFT/TDA RELAXED DENSITY
--------------------------

Reference wavefunction             ... RHF
State of interest                  ... 1
[...]
     31      -0.002890   0.007761   0.004623   0.000186   0.000580  -0.000003
     32      -0.000002   0.000008   0.000015   0.000005   0.000000  -0.000048
     33      -0.001737  -0.111025  -0.094086  -0.018285  -0.016113   0.000014
     34       0.000180   0.002468   0.001431  -0.000064   0.000464  -0.000000
     35       0.000020  -0.000107  -0.000117  -0.000024  -0.000014  -0.000972
     36       0.001407  -0.012075  -0.006890  -0.013091  -0.002126   0.000016
     37       0.031229  -0.067006  -0.057869  -0.009443  -0.010475   0.000024
     38      -0.000025   0.000102  -0.000337  -0.000093  -0.000001  -0.006573
                 30         31         32         33         34         35    
      0       0.001901   0.228605   0.004402  -0.000023  -0.000000   0.003876
      1       0.010166   0.216821   0.005200   0.000595   0.000001  -0.000093
      2      -0.000002   0.000035  -0.000004  -0.000000   0.000316   0.000001
      3       0.020782  -0.288795  -0.006455   0.000507  -0.000000  -0.001719
      4       0.042091  -0.374530   0.015152  -0.000417  -0.000000  -0.001430
      5       0.000016  -0.000145   0.000006   0.000000   0.000693  -0.000000
      6       0.037048  -0.049109  -0.001305  -0.048517  -0.000015   0.050086
      7       0.040278   0.016277  -0.000662   0.016032  -0.000003   0.076973
      8       0.000003  -0.000016  -0.000001  -0.000004   0.091413   0.000011
      9      -0.461892  -0.156988   0.001073   0.361050   0.414477  -0.152700
     10      -0.252787  -0.049696  -0.000412   0.093054   0.106435  -0.028248
     11      -0.391076  -0.094478   0.002244  -0.527285  -0.558939   0.228058
     12      -0.462052  -0.156998   0.001082   0.360767  -0.414295  -0.152590
     13      -0.252943  -0.049981  -0.000451   0.093029  -0.106418  -0.028241
     14       0.390877   0.094437  -0.002245   0.527368  -0.559205  -0.228104
     15       0.353417   0.292122   0.008844  -0.146032   0.000001  -0.314116
     16      -0.088871  -0.082757  -0.004946  -0.376883   0.000012  -0.860579
     17       0.000151   0.000189   0.000016  -0.000044   0.020859  -0.000092
     18       0.001449  -0.037294  -0.000180  -0.000025   0.000000  -0.000528
     19      -0.001815  -0.116424  -0.003150  -0.000482  -0.000000   0.000152
     20      -0.000002   0.000013   0.000000   0.000001  -0.000107  -0.000000
     21      -0.008159   0.074969  -0.001270  -0.000028   0.000000   0.000415
     22      -0.027455   0.198579  -0.007876  -0.000021   0.000000   0.000766
     23      -0.000005   0.000051  -0.000000  -0.000001  -0.000022   0.000000
     24      -0.002984   0.078545  -0.001200  -0.000377  -0.000000  -0.000106
     25      -0.002248   0.014104  -0.002963   0.000045  -0.000000  -0.000087
     26      -0.000004   0.000033  -0.000002   0.000001  -0.000071  -0.000000
     27       0.020219  -0.556905   0.056716   0.001749   0.000004   0.000615
     28      -0.007474   0.355790  -0.040830   0.005155   0.000007   0.006342
     29       0.000048  -0.000203   0.000027  -0.000011   0.000302   0.000006
     30       0.000057  -0.000931  -0.048992   0.000347  -0.000000  -0.000014
     31       0.000489  -0.004900  -0.045754  -0.000107   0.000000  -0.000068
     32       0.000001   0.000003  -0.000070  -0.000000  -0.000031  -0.000000
     33      -0.008692   0.054571   0.640519   0.000538  -0.000000  -0.000182
     34       0.000308  -0.001201   0.014131  -0.000063  -0.000001   0.000301
     35      -0.000009   0.000058   0.000765  -0.000001  -0.000007   0.000000
     36       0.000216  -0.003322   0.151413  -0.004403   0.000005   0.000173
     37      -0.008361   0.063040   0.746132   0.001530  -0.000003  -0.000710
     38      -0.000025  -0.000067   0.000317   0.000011  -0.000611   0.000002
                 36         37         38    
      0       0.001930   0.000245  -0.000305
      1      -0.000645   0.000675  -0.000387
      2      -0.000000  -0.000001  -0.000000
      3       0.002942  -0.000952   0.000018
      4       0.008061  -0.005679   0.000082
      5       0.000002   0.000002  -0.000000
      6      -0.001010  -0.000314   0.000138
      7       0.000978  -0.000092  -0.000026
      8       0.000000  -0.000001   0.000000
      9       0.002351   0.001643  -0.000057
     10      -0.001103   0.000293   0.000023
     11      -0.001522  -0.001824   0.000043
     12       0.002343   0.001644  -0.000060
     13      -0.001112   0.000295   0.000022
     14       0.001517   0.001833  -0.000045
     15       0.002295  -0.000481  -0.000476
     16      -0.008486   0.000872   0.000629
     17       0.000004   0.000004  -0.000000
     18      -0.002774   0.000494   0.000168
     19       0.000295   0.000026   0.000131
     20       0.000001  -0.000000  -0.000000
     21      -0.001720   0.000821  -0.000018
     22      -0.001999   0.002461   0.000048
     23      -0.000000  -0.000000  -0.000000
     24       0.033634  -0.011249   0.000452
     25       0.046788  -0.014435   0.000400
     26       0.000030  -0.000010   0.000000
     27      -0.514202   0.166180  -0.008093
     28      -0.800799   0.249095  -0.007787
     29      -0.000508   0.000161  -0.000006
     30      -0.017802  -0.055841   0.008074
     31       0.003038   0.007415  -0.061594
     32      -0.000020  -0.000064  -0.000010
     33      -0.010842  -0.037342  -0.046070
     34       0.016685   0.088890   0.993530
     35      -0.000009  -0.000017   0.000252
     36       0.292102   0.924514  -0.081197
     37      -0.069003  -0.206764  -0.014034
     38       0.000322   0.001030  -0.000100


-----------
IR SPECTRUM
-----------

 Mode   freq       eps      Int      T**2         TX        TY        TZ
       cm**-1   L/(mol*cm) km/mol    a.u.
----------------------------------------------------------------------------
  8:     20.44   0.000161    0.81  0.002451  ( 0.000288  0.000008 -0.049507)
  9:     81.41   0.000386    1.95  0.001481  ( 0.036053 -0.013470  0.000181)
 10:    155.54   0.001002    5.06  0.002009  (-0.000089 -0.000003  0.044826)
 11:    175.49   0.000022    0.11  0.000039  ( 0.001484  0.006035 -0.000061)
 12:    275.33   0.013288   67.15  0.015061  (-0.122095  0.012385 -0.000013)
 13:    363.64   0.010492   53.02  0.009004  (-0.077661  0.054525  0.000034)
 14:    386.36   0.003826   19.33  0.003090  ( 0.030106 -0.046728 -0.000003)
 15:    404.33   0.002336   11.81  0.001803  ( 0.000073 -0.000076  0.042464)
 16:    542.00   0.000673    3.40  0.000387  (-0.017949 -0.008076  0.000017)
 17:    563.52   0.004093   20.68  0.002267  ( 0.046267  0.011224 -0.000003)
 18:    598.13   0.007897   39.91  0.004120  ( 0.000044 -0.000051  0.064190)
 19:    632.89   0.012593   63.64  0.006209  (-0.000154 -0.000016  0.078799)
 20:    673.71   0.017837   90.14  0.008262  ( 0.000097  0.000044 -0.090897)
 21:    777.98   0.001775    8.97  0.000712  (-0.000576  0.026673  0.000036)
 22:    974.26   0.000425    2.15  0.000136  ( 0.006560 -0.009656  0.000008)
 23:   1005.22   0.000946    4.78  0.000294  (-0.000003  0.000004  0.017139)
 24:   1102.75   0.029277  147.96  0.008285  ( 0.086037 -0.029711  0.000015)
 25:   1247.33   0.006957   35.16  0.001741  ( 0.041701  0.001277  0.000030)
 26:   1323.34   0.034369  173.68  0.008105  (-0.004701  0.089903  0.000004)
 27:   1354.42   0.060776  307.14  0.014003  ( 0.060184 -0.101887 -0.000020)
 28:   1373.47   0.003836   19.38  0.000871  ( 0.016216  0.024668  0.000007)
 29:   1420.32   0.002091   10.57  0.000459  ( 0.000006 -0.000009 -0.021434)
 30:   1451.04   0.001462    7.39  0.000314  (-0.017040  0.004907  0.000005)
 31:   1573.54   0.007964   40.25  0.001579  (-0.032122 -0.023400 -0.000019)
 32:   1693.97   0.034653  175.12  0.006384  ( 0.071949  0.034745  0.000067)
 33:   3017.88   0.000141    0.71  0.000015  ( 0.003349 -0.001848 -0.000001)
 34:   3086.00   0.000006    0.03  0.000001  ( 0.000002  0.000001  0.000787)
 35:   3147.23   0.000511    2.58  0.000051  (-0.005366  0.004674 -0.000001)
 36:   3524.70   0.013083   66.11  0.001158  (-0.010859 -0.032255  0.000001)
 37:   3560.04   0.118428  598.49  0.010381  ( 0.099314  0.022757  0.000084)
 38:   3934.11   0.005291   26.74  0.000420  (-0.012823  0.015977 -0.000009)

* The epsilon (eps) is given for a Dirac delta lineshape.
** The dipole moment derivative (T) already includes vibrational overlap.

The first frequency considered to be a vibration is 8
The total number of vibrations considered is 31


--------------------------
THERMOCHEMISTRY AT 298.15K
--------------------------

Temperature         ...   298.15 K
Pressure            ...     1.00 atm
Total Mass          ...   106.08 AMU
Quasi RRHO          ...     True
Cut-Off Frequency   ...     1.00 cm^-1

Throughout the following assumptions are being made:
  (1) The electronic state is orbitally nondegenerate
  (2) There are no thermally accessible electronically excited states
  (3) Hindered rotations indicated by low frequency modes are not
      treated as such but are treated as vibrations and this may
      cause some error
  (4) All equations used are the standard statistical mechanics
      equations for an ideal gas
  (5) All vibrations are strictly harmonic

freq.      20.44  E(vib)   ...       0.56 
freq.      81.41  E(vib)   ...       0.48 
freq.     155.54  E(vib)   ...       0.40 
freq.     175.49  E(vib)   ...       0.38 
freq.     275.33  E(vib)   ...       0.28 
freq.     363.64  E(vib)   ...       0.22 
freq.     386.36  E(vib)   ...       0.20 
freq.     404.33  E(vib)   ...       0.19 
freq.     542.00  E(vib)   ...       0.12 
freq.     563.52  E(vib)   ...       0.11 
freq.     598.13  E(vib)   ...       0.10 
freq.     632.89  E(vib)   ...       0.09 
freq.     673.71  E(vib)   ...       0.08 
freq.     777.98  E(vib)   ...       0.05 
freq.     974.26  E(vib)   ...       0.03 
freq.    1005.22  E(vib)   ...       0.02 
freq.    1102.75  E(vib)   ...       0.02 
freq.    1247.33  E(vib)   ...       0.01 
freq.    1323.34  E(vib)   ...       0.01 
freq.    1354.42  E(vib)   ...       0.01 
freq.    1373.47  E(vib)   ...       0.01 
freq.    1420.32  E(vib)   ...       0.00 
freq.    1451.04  E(vib)   ...       0.00 
freq.    1573.54  E(vib)   ...       0.00 
freq.    1693.97  E(vib)   ...       0.00 
freq.    3017.88  E(vib)   ...       0.00 
freq.    3086.00  E(vib)   ...       0.00 
freq.    3147.23  E(vib)   ...       0.00 
freq.    3524.70  E(vib)   ...       0.00 
freq.    3560.04  E(vib)   ...       0.00 
freq.    3934.11  E(vib)   ...       0.00 

------------
INNER ENERGY
------------

The inner energy is: U= E(el) + E(ZPE) + E(vib) + E(rot) + E(trans)
    E(el)   - is the total energy from the electronic structure calculation
              = E(kin-el) + E(nuc-el) + E(el-el) + E(nuc-nuc)
    E(ZPE)  - the the zero temperature vibrational energy from the frequency calculation
    E(vib)  - the the finite temperature correction to E(ZPE) due to population
              of excited vibrational states
    E(rot)  - is the rotational thermal energy
    E(trans)- is the translational thermal energy

Summary of contributions to the inner energy U:
Electronic energy                ...   -418.63716265 Eh
Zero point energy                ...      0.09212996 Eh      57.81 kcal/mol
Thermal vibrational correction   ...      0.00537963 Eh       3.38 kcal/mol
Thermal rotational correction    ...      0.00141627 Eh       0.89 kcal/mol
Thermal translational correction ...      0.00141627 Eh       0.89 kcal/mol
-----------------------------------------------------------------------
Total thermal energy                   -418.53682052 Eh


Summary of corrections to the electronic energy:
(perhaps to be used in another calculation)
Total thermal correction                  0.00821217 Eh       5.15 kcal/mol
Non-thermal (ZPE) correction              0.09212996 Eh      57.81 kcal/mol
-----------------------------------------------------------------------
Total correction                          0.10034213 Eh      62.97 kcal/mol


--------
ENTHALPY
--------

The enthalpy is H = U + kB*T
                kB is Boltzmann's constant
Total thermal energy              ...   -418.53682052 Eh 
Thermal Enthalpy correction       ...      0.00094421 Eh       0.59 kcal/mol
-----------------------------------------------------------------------
Total Enthalpy                    ...   -418.53587631 Eh


Note: Only C1 symmetry has been detected, increase convergence thresholds 
      if your molecule has a higher symmetry. Symmetry factor of 1.0 is   
      used for the rotational entropy correction. 
 

Note: Rotational entropy computed according to Herzberg 
Infrared and Raman Spectra, Chapter V,1, Van Nostrand Reinhold, 1945 
Point Group:  C1, Symmetry Number:   1  
Rotational constants in cm-1:     0.175530     0.044258     0.035582 

Vibrational entropy computed according to the QRRHO of S. Grimme
Chem.Eur.J. 2012 18 9955 using a reference frequency of 100.0 cm-1


-------
ENTROPY
-------

The entropy contributions are T*S = T*(S(el)+S(vib)+S(rot)+S(trans))
     S(el)   - electronic entropy
     S(vib)  - vibrational entropy
     S(rot)  - rotational entropy
     S(trans)- translational entropy
The entropies will be listed as multiplied by the temperature to get
units of energy

Electronic entropy                ...      0.00000000 Eh      0.00 kcal/mol
Vibrational entropy               ...      0.00960710 Eh      6.03 kcal/mol
Rotational entropy                ...      0.01337891 Eh      8.40 kcal/mol
Translational entropy             ...      0.01895480 Eh     11.89 kcal/mol
-----------------------------------------------------------------------
Final entropy term                ...      0.04194080 Eh     26.32 kcal/mol

In case the symmetry of your molecule has not been determined correctly
or in case you have a reason to use a different symmetry number we print 
out the resulting rotational entropy values for sn=1,12:

 non-linear molecules -----------------------------------
|  sn= 1 | S(rot)=       0.01337891 Eh      8.40 kcal/mol|
|  sn= 2 | S(rot)=       0.01272445 Eh      7.98 kcal/mol|
|  sn= 3 | S(rot)=       0.01234162 Eh      7.74 kcal/mol|
|  sn= 4 | S(rot)=       0.01207000 Eh      7.57 kcal/mol|
|  sn= 5 | S(rot)=       0.01185931 Eh      7.44 kcal/mol|
|  sn= 6 | S(rot)=       0.01168717 Eh      7.33 kcal/mol|
|  sn= 7 | S(rot)=       0.01154162 Eh      7.24 kcal/mol|
|  sn= 8 | S(rot)=       0.01141554 Eh      7.16 kcal/mol|
|  sn= 9 | S(rot)=       0.01130433 Eh      7.09 kcal/mol|
|  sn=10 | S(rot)=       0.01120485 Eh      7.03 kcal/mol|
|  sn=11 | S(rot)=       0.01111486 Eh      6.97 kcal/mol|
|  sn=12 | S(rot)=       0.01103271 Eh      6.92 kcal/mol|
 linear molecules ---------------------------------------
|  Dinfh | S(rot)=       0.00847550 Eh      5.32 kcal/mol|
|  Cinfv | S(rot)=       0.00912996 Eh      5.73 kcal/mol|
 --------------------------------------------------------


-------------------
GIBBS FREE ENERGY
-------------------

The Gibbs free energy is G = H - T*S

Total enthalpy                    ...   -418.53587631 Eh 
Total entropy correction          ...     -0.04194080 Eh    -26.32 kcal/mol
-----------------------------------------------------------------------
Final Gibbs free energy         ...   -418.57781712 Eh

For completeness - the Gibbs free energy minus the electronic energy
G-E(el)                           ...      0.05934554 Eh     37.24 kcal/mol



--------------------------------
SUGGESTED CITATIONS FOR THIS RUN
--------------------------------

Below you find a list of papers that are relevant to this ORCA run
We neither can nor want to force you to cite these papers, but we appreciate if you do
You receive ORCA, which is the product of decades of hard work by many enthusiastic individuals, for free
The only thing we kindly ask in return is that you cite our papers,
We deeply appreciate it, if you show your appreciation for ORCA by not just citing the generic ORCA reference.

Please note that relegating all ORCA citations to the supporting information does *not* help us.
SI sections are not indexed - citations you put there will not count into any citation statistics
But we need these citations in order to attract the funding resources that allow us to do what we are doing

Therefore, if you are a happy ORCA user, please consider citing a few of the papers listed below in the main body of your paper

In addition to the list printed below, the program has created the file s1_freq_1_wat.bibtex that contains the list in bibtex format
You can import this file easily into all common literature databanks and citation aid programs


List of essential papers. We consider these as the minimum necessary citations

  1. Neese, F.
     Software update: the ORCA program system, version 6.0
     WIRES Comput. Molec. Sci. 2025 15(1), e70019
     doi.org/10.1002/wcms.7019

List of papers to cite with high priority. The work reported in these papers was absolutely
necessary for this run to complete.
Our perspective: the developers of density functionals and basis sets usually get cited in chemistry papers
Good! But without the algorithms to do something with them, the functionals or basis sets would not do anything.
Hence, in our opinion, the algorithm design and method developments papers are equally worthy of getting cited

  1. Neese, F.; Olbrich, G.
     Efficient use of the resolution of the identity approximation in time-dependent density functional calculations with hybrid density functionals
     Chem. Phys. Lett. 2002 362 , 170-178
     doi.org/10.1016/s0009-2614(02)01053-9
  2. Petrenko, T.; Kossmann, S.; Neese, F.
     Efficient time-dependent density functional theory approximations for hybrid density functionals: Analytical gradients and parallelization
     J. Chem. Phys. 2011 134 , 054116
     doi.org/10.1063/1.3533441
  3. Lehtola, S.; Steigemann, C.; Oliveira, M.; Marques, M.
     Recent developments in Libxc - A comprehensive library of functionals for density functional theory
     Software X 2018 7 , 
     doi.org/10.1016/j.softx.2017.11.002
  4. Neese, F.
     The SHARK Integral Generation and Digestion System
     J. Comp. Chem. 2022 44(3), 381
     doi.org/10.1002/jcc.26942

List of suggested additional citations. These are papers that are important in the 'surrounding' of 
of this run, or papers that preceded the highly important papers. If you like your results we are grateful for a citation.

  1. Neese, F.
     The ORCA program system
     WIRES Comput. Molec. Sci. 2012 2(1), 73-78
     doi.org/10.1002/wcms.81
  2. Neese, F.
     Software update: the ORCA program system, version 4.0
     WIRES Comput. Molec. Sci. 2018 8(1), 1-6
     doi.org/10.1002/wcms.1327
  3. Neese, F.; Wennmohs, F.; Becker, U.; Riplinger, C.
     The ORCA quantum chemistry program package
     J. Chem. Phys. 2020 152(22), 224108
     doi.org/10.1063/5.0004608
  4. Neese, F.
     Software update: The ORCA program system—Version 5.0
     WIRES Comput. Molec. Sci. 2022 12(1), e1606
     doi.org/10.1002/wcms.1606

List of optional additional citations

  1. Neese, F.
     Approximate second-order SCF convergence for spin unrestricted wavefunctions
     Chem. Phys. Lett. 2000 325(1-3), 93-98
     doi.org/10.1016/s0009-2614(00)00662-x

Timings for individual modules:

Sum of individual times          ...    31145.999 sec (= 519.100 min)
Startup calculation              ...        8.703 sec (=   0.145 min)   0.0 %
SCF iterations                   ...      155.086 sec (=   2.585 min)   0.5 %
Property integrals               ...        3.522 sec (=   0.059 min)   0.0 %
Property calculations            ...        1.423 sec (=   0.024 min)   0.0 %
CIS module                       ...      951.856 sec (=  15.864 min)   3.1 %
Numerical frequency calculation  ...    30025.409 sec (= 500.423 min)  96.4 %
                             ****ORCA TERMINATED NORMALLY****
TOTAL RUN TIME: 0 days 8 hours 29 minutes 57 seconds 927 msec
