
                                 *****************
                                 * O   R   C   A *
                                 *****************

                                            #,                                       
                                            ###                                      
                                            ####                                     
                                            #####                                    
                                            ######                                   
                                           ########,                                 
                                     ,,################,,,,,                         
                               ,,#################################,,                 
                          ,,##########################################,,             
                       ,#########################################, ''#####,          
                    ,#############################################,,   '####,        
                  ,##################################################,,,,####,       
                ,###########''''           ''''###############################       
              ,#####''   ,,,,##########,,,,          '''####'''          '####       
            ,##' ,,,,###########################,,,                        '##       
           ' ,,###''''                  '''############,,,                           
         ,,##''                                '''############,,,,        ,,,,,,###''
      ,#''                                            '''#######################'''  
     '                                                          ''''####''''         
             ,#######,   #######,   ,#######,      ##                                
            ,#'     '#,  ##    ##  ,#'     '#,    #''#        ,####,    ,#,          
            ##       ##  ##   ,#'  ##            #'  '#       #'       ,# #          
            ##       ##  #######   ##           ,######,      #####,      #          
            '#,     ,#'  ##    ##  '#,     ,#' ,#      #,     #,   #      #          
             '#######'   ##     ##  '#######'  #'      '#     '####' #    #          



                #########################################################
                #                        -***-                          #
                #          Department of theory and spectroscopy        #
                #                                                       #
                #                      Frank Neese                      #
                #                                                       #
                #     Directorship, Architecture, Infrastructure        #
                #                    SHARK, DRIVERS                     #
                #        Core code/Algorithms in most modules           #
                #                                                       #
                #        Max Planck Institute fuer Kohlenforschung      #
                #                Kaiser Wilhelm Platz 1                 #
                #                 D-45470 Muelheim/Ruhr                 #
                #                      Germany                          #
                #                                                       #
                #                  All rights reserved                  #
                #                        -***-                          #
                #########################################################


                         Program Version 6.1.0  -  RELEASE   -
                                (GIT: $679e74b$)
                          ($2025-06-10 18:02:51 +0200$)


 With contributions from (in alphabetic order):
[Max-Planck-Institut fuer Kohlenforschung]                               
  Daniel Aravena         : Magnetic Suceptibility                        
  Michael Atanasov       : Ab Initio Ligand Field Theory (pilot matlab implementation)
  Alexander A. Auer      : GIAO ZORA, VPT2 properties, NMR spectrum      
  Ute Becker             : All parallelization in ORCA, NUMFREQ, NUMCALC 
  Giovanni Bistoni       : ED, misc. LED, open-shell LED, HFLD           
  Dmytro Bykov           : pre 5.0 version of the SCF Hessian            
  Marcos Casanova-Páez   : Triplet and SCS-CIS(D). UHF-(DLPNO)-IP/EA/STEOM-CCSD. UHF-CVS-IP/STEOM-CCSD   
  Vijay G. Chilkuri      : MRCI spin determinant printing, contributions to CSF-ICE 
  Pauline Colinet        : FMM embedding                                 
  Dipayan Datta          : RHF DLPNO-CCSD density                        
  Achintya Kumar Dutta   : EOM-CC, STEOM-CC                              
  Nicolas Foglia         : Exact transition moments, OPA infrastructure, MCD improvements    
  Dmitry Ganyushin       : Spin-Orbit,Spin-Spin,Magnetic field MRCI      
  Miquel Garcia-Rates    : C-PCM and meta-GGA Hessian, CCSD/C-PCM, Gaussian charge scheme 
  Tiago L. C. Gouveia    : GS-ROHF, GS-ROCIS                             
  Yang Guo               : DLPNO-NEVPT2, F12-NEVPT2, CIM, IAO-localization        
  Andreas Hansen         : Spin unrestricted coupled pair/coupled cluster methods 
  Ingolf Harden          : AUTO-CI MPn and infrastructure                
  Benjamin Helmich-Paris : MC-RPA, TRAH-(SCF,CASSCF), AVAS, COSX integrals, SCF dyn. polar., MC-PDFT, srDFT 
  Lee Huntington         : MR-EOM, pCC                                   
  Robert Izsak           : Overlap fitted RIJCOSX, COSX-SCS-MP3, EOM     
  Riya Kayal             : Wick's Theorem for AUTO-CI, AUTO-CI UHF-CCSDT 
  Emily Kempfer          : AUTO-CI RHF CISDT and CCSDT, approximate NEVPT4
  Christian Kollmar      : KDIIS, OOCD, Brueckner-CCSD(T), CCSD density, CASPT2, CASPT2-K, improved NEVPT2 
  Axel Koslowski         : Symmetry handling                             
  Simone Kossmann        : meta-GGA functionals, TD-DFT gradient, OOMP2, (MP2 Hessian; deprecated post 5.0) 
  Lucas Lang             : DCDCAS, Hyperfine gauge corrections, ICE-SOC+SSC
  Marvin Lechner         : AUTO-CI (C++ implementation), FIC-MRCC        
  Spencer Leger          : CASSCF response                               
  Dagmar Lenk            : GEPOL surface, SMD, ORCA-2-JSON               
  Dimitrios Liakos       : Extrapolation schemes; Compound Job, Property file
  Dimitrios Manganas     : Further ROCIS development; embedding schemes. LFT, Crystal Embedding 
  Dimitrios Pantazis     : SARC Basis sets                               
  Anastasios Papadopoulos: AUTO-CI, single reference methods and gradients 
  Taras Petrenko         : pre 6.0 DFT Hessian and TD-DFT gradient,  ECA, NRVS 
  Petra Pikulova         : Analytic Raman intensities                    
  Peter Pinski           : DLPNO-MP2, DLPNO-MP2 Gradient                 
  Shashank Vittal Rao    : ES-AILFT, MagRelax                            
  Christoph Reimann      : Effective Core Potentials                     
  Marius Retegan         : Local ZFS, SOC                                
  Christoph Riplinger    : Optimizer, TS searches, QM/MM, DLPNO-CCSD(T), (RO)-DLPNO pert. Triples 
  Michael Roemelt        : Original ROCIS implementation, recursive CI coupling coefficients
  Masaaki Saitow         : Open-shell DLPNO-CCSD energy and density      
  Barbara Sandhoefer     : DKH picture change effects                    
  Yorick L. A. Schmerwitz: GMF and freeze-and-release deltaSCF, NEB S-IDPP initial path                    
  Kantharuban Sivalingam : CASSCF convergence/infrastructure, NEVPT2, NEVPT3, NEVPT4(SD), FIC-MRCI and CEPA variants
  Bernardo de Souza      : ESD, SOC TD-DFT                               
  Georgi L. Stoychev     : AutoAux, RI-MP2 NMR, DLPNO-MP2 response, X2C  
  Van Anh Tran           : RI-MP2 g-tensors                              
  Willem Van den Heuvel  : Paramagnetic NMR                              
  Zikuan Wang            : NOTCH, Electric field optimization            
  Frank Wennmohs         : Technical directorship and infrastructure     
  Hang Xu                : AUTO-CI-Response properties                   
                                                                         
[FACCTs GmbH]                                                            
  Markus Bursch, Nicolas Foglia, Miquel Garcia-Rates, Ingolf Harden, Hagen Neugebauer, Anastasios Papadopoulos, 
  Christoph Riplinger, Bernardo de Souza, Georgi L. Stoychev                                                    
                                                                 
  APM, various basis sets, CI-OPT, improved COSX, DLPNO-Multilevel,           
  DOCKER, DRACO, updates on ESD, Fragmentator, GOAT, IRC, LR-CPCM, L-BFGS, MBIS, meta-GGA TD-DFT gradient, ML-optimized integration grids, 
  MM, NACMEs, nearIR, NEB, NEB-TS, NL-DFT gradient (VV10), 2- and 3-layer-ONIOM, interface openCOSMO-RS, QMMM,   
  Crystal-QMMM, RESP, rigid body optimization, SF, symmetry and pop. for TD-DFT, various functionals, SOLVATOR                                   
                                                                         
[Other institutions]                                                     
  V. Asgeirsson          : NEB                                           
  Christoph Bannwarth    : sTDA-DFT, sTD-DFT, PBEh-3c, B97-3c, D3        
  Giovanni Bistoni       : ETS/NOCV, ADLD/ADEX, COVALED                  
  Martin Brehm           : Molecular dynamics                            
  Ronald Cardenas        : ETS/NOCV                                      
  Martina Colucci        : COVALED                                       
  Sebastian Ehlert       : rSCAN, r2SCAN, r2SCAN-3c, D4, dhf basis sets  
  Marvin Friede          : D4 for Fr, Ra, Ac-Lr                          
  Lars Goerigk           : TD-DFT with DH, B97 family of functionals     
  Stefan Grimme          : VdW corrections, initial TS optimization, DFT functionals, gCP, sTDA/sTD-DF 
  Waldemar Hujo          : DFT-NL                                        
  H. Jonsson             : NEB                                           
  Holger Kruse           : gCP                                           
  Marcel Mueller         : wB97X-3c, vDZP basis set                      
  Hagen Neugebauer       : wr2SCAN, Native XTB                           
  Gianluca Regni         : ADLD/ADEX                                     
  Tobias Risthaus        : pre 6.0 range-separated hybrid DFT and stability analysis
  Lukas Wittmann         : regularized MP2, r2SCAN double-hybrids, wr2SCAN        
                                                                         
We gratefully acknowledge several colleagues who have allowed us to      
interface, adapt or use parts of their codes:                            
  Ed Valeev, F. Pavosevic, A. Kumar             : LibInt (2-el integral package), F12 methods 
  Garnet Chan, S. Sharma, J. Yang, R. Olivares  : DMRG                   
  Ulf Ekstrom                                   : XCFun DFT Library      
  Mihaly Kallay                                 : mrcc  (arbitrary order and MRCC methods)
  Frank Weinhold                                : gennbo (NPA and NBO analysis)           
  Simon Mueller                                 : openCOSMO-RS                            
  Christopher J. Cramer and Donald G. Truhlar   : smd solvation model                     
  S Lehtola, MJT Oliveira, MAL Marques          : LibXC Library                           
  Liviu Ungur et al                             : ANISO software                          


 Your calculation uses the libint2 library for the computation of 2-el integrals
 For citations please refer to: http://libint.valeyev.net

 Your ORCA version has been built with support for libXC version: 7.0.0
 For citations please refer to: https://libxc.gitlab.io

 This ORCA versions uses:
   CBLAS   interface :  Fast vector & matrix operations
   LAPACKE interface :  Fast linear algebra routines
   SCALAPACK package :  Parallel linear algebra routines
   Shared memory     :  Shared parallel matrices
   BLAS/LAPACK       :  OpenBLAS 0.3.29  USE64BITINT DYNAMIC_ARCH NO_AFFINITY SkylakeX SINGLE_THREADED
        Core in use  :  SkylakeX
   Copyright (c) 2011-2014, The OpenBLAS Project


  ***********************************
  * Starting time: Wed Jan 28 11:55:44 2026
  * Host name:     bp1-compute196.data.bp.acrc.priv
  * Process ID:    1720617
  * Working dir.:  /user/work/kp22738/Diss/Orca/pyruvic_anion/dyson_orbitals/1_wat/15365125_t1_freq_1_wat
  ***********************************

NOTE: MaxCore=8000 MB was set to SCF,MP2,MDCI,CIPSI,MRCI,RASCI and CIS
      => If you want to overwrite this, your respective input block should be placed after the MaxCore statement
Using LibXC functional ID 471 : wB97X-D range-separated functional
[ 1]  J.-D. Chai and M. Head-Gordon.,  Phys. Chem. Chem. Phys. 10, 6615-6620 (2008)
Using LibXC functional ID 471 : wB97X-D range-separated functional
[ 1]  J.-D. Chai and M. Head-Gordon.,  Phys. Chem. Chem. Phys. 10, 6615-6620 (2008)
Your calculation utilizes LibXC
by S. Lehtola, C. Steigemann, M. J. T. Oliveira & M. A. L. Marques
Please cite in your paper:
Lehtola, S.; Steigemann, C.; Oliveira, M.J.T.; Marques, M. A. L. Software X, 7, (2018), 1.
   

================================================================================

----- Orbital basis set information -----
Your calculation utilizes the basis: aug-cc-pVDZ 
    H, B-Ne : Obtained from the ccRepo (grant-hill.group.shef.ac.uk/ccrepo) Feb. 2017
              R. A. Kendall, T. H. Dunning, Jr., R. J. Harrison, J. Chem. Phys. 96, 6796 (1992)
         He : Obtained from the ccRepo (grant-hill.group.shef.ac.uk/ccrepo) Feb. 2017
              D. E. Woon, T. H. Dunning, Jr., J. Chem. Phys. 100, 2975 (1994)
  Li-Be, Na : Obtained from the ccRepo (grant-hill.group.shef.ac.uk/ccrepo) Feb. 2017
              B. P. Prascher, D. E. Woon, K. A. Peterson, T. H. Dunning, Jr., A. K. Wilson, Theor. Chem. Acc. 128, 69 (2011)
         Mg : Obtained from the Peterson Research Group Website (tyr0.chem.wsu.edu/~kipeters) Feb. 2017
              B. P. Prascher, D. E. Woon, K. A. Peterson, T. H. Dunning, Jr., A. K. Wilson, Theor. Chem. Acc. 128, 69 (2011)
      Al-Ar : Obtained from the ccRepo (grant-hill.group.shef.ac.uk/ccrepo) Feb. 2017
              D. E. Woon, T. H. Dunning, Jr., J. Chem. Phys. 98, 1358 (1993)
      Sc-Zn : Obtained from the ccRepo (grant-hill.group.shef.ac.uk/ccrepo) Feb. 2017
              N. B. Balabanov, K. A. Peterson, J. Chem. Phys. 123, 064107 (2005)
              N. B. Balabanov, K. A. Peterson, J. Chem. Phys. 125, 074110 (2006)
      Ga-Kr : Obtained from the ccRepo (grant-hill.group.shef.ac.uk/ccrepo) Feb. 2017
              A. K. Wilson, D. E. Woon, K. A. Peterson, T. H. Dunning, Jr., J. Chem. Phys. 110, 7667 (1999)

================================================================================
                                        WARNINGS
                       Please study these warnings very carefully!
================================================================================


WARNING: your system is open-shell and RHF/RKS was chosen
  ===> : WILL SWITCH to UHF/UKS


================================================================================
                                       INPUT FILE
================================================================================
NAME = t1_freq_1_wat.inp
|  1> ! aug-cc-pVDZ TightSCF DEFGRID3 Engrad ANFREQ
|  2> 
|  3> %PAL NPROCS 8 END
|  4> 
|  5> %maxcore 8000
|  6> 
|  7> %method
|  8> method dft
|  9> functional hyb_gga_xc_wb97x_d
| 10> end
| 11> 
| 12> * xyz 0 3
| 13>   C     -0.652599   -0.222620    0.000026
| 14>   C      0.704994    0.248880    0.000429
| 15>   C     -1.793407    0.759899   -0.000192
| 16>   H     -2.431432    0.606736    0.886085
| 17>   H     -2.431051    0.606780   -0.886751
| 18>   H     -1.418596    1.790709   -0.000080
| 19>   O     -0.862076   -1.491330    0.000100
| 20>   O      1.118778    1.427594    0.000705
| 21>   O      1.607966   -0.785033    0.000435
| 22>   H      1.006664   -1.561270   -0.000079
| 23>   O      3.879411    1.363126    0.003274
| 24>   H      3.889754    0.401977    0.002990
| 25>   H      2.909794    1.528853    0.002189
| 26> * 
| 27> 
| 28>                          ****END OF INPUT****
================================================================================

                     *******************************
                     * Energy+Gradient Calculation *
                     *******************************

---------------------------------
CARTESIAN COORDINATES (ANGSTROEM)
---------------------------------
  C     -0.652599   -0.222620    0.000026
  C      0.704994    0.248880    0.000429
  C     -1.793407    0.759899   -0.000192
  H     -2.431432    0.606736    0.886085
  H     -2.431051    0.606780   -0.886751
  H     -1.418596    1.790709   -0.000080
  O     -0.862076   -1.491330    0.000100
  O      1.118778    1.427594    0.000705
  O      1.607966   -0.785033    0.000435
  H      1.006664   -1.561270   -0.000079
  O      3.879411    1.363126    0.003274
  H      3.889754    0.401977    0.002990
  H      2.909794    1.528853    0.002189

----------------------------
CARTESIAN COORDINATES (A.U.)
----------------------------
  NO LB      ZA    FRAG     MASS         X           Y           Z
   0 C     6.0000    0    12.011   -1.233233   -0.420691    0.000049
   1 C     6.0000    0    12.011    1.332246    0.470315    0.000811
   2 C     6.0000    0    12.011   -3.389048    1.436001   -0.000363
   3 H     1.0000    0     1.008   -4.594741    1.146565    1.674458
   4 H     1.0000    0     1.008   -4.594021    1.146648   -1.675717
   5 H     1.0000    0     1.008   -2.680758    3.383950   -0.000151
   6 O     8.0000    0    15.999   -1.629088   -2.818205    0.000189
   7 O     8.0000    0    15.999    2.114184    2.697762    0.001332
   8 O     8.0000    0    15.999    3.038615   -1.483497    0.000822
   9 H     1.0000    0     1.008    1.902319   -2.950373   -0.000149
  10 O     8.0000    0    15.999    7.331024    2.575935    0.006187
  11 H     1.0000    0     1.008    7.350570    0.759626    0.005650
  12 H     1.0000    0     1.008    5.498714    2.889113    0.004137

--------------------------------
INTERNAL COORDINATES (ANGSTROEM)
--------------------------------
 C      0   0   0     0.000000000000     0.00000000     0.00000000
 C      1   0   0     1.437139925706     0.00000000     0.00000000
 C      1   2   0     1.505585110762   120.11096602     0.00000000
 H      3   1   2     1.102733751149   110.34349995   239.02059565
 H      3   1   2     1.102733947685   110.34331439   120.98865468
 H      3   1   2     1.096837524142   110.75493724     0.00000000
 O      1   2   3     1.285887119115   118.52794467   180.01221405
 O      2   1   3     1.249233352352   128.49588552     0.00000000
 O      2   1   3     1.372710648458   111.98005149   180.00648738
 H      9   2   1     0.981890136201   101.10483963     0.00000000
 O      8   2   1     2.761386840606   108.00571093   179.95852645
 H     11   8   2     0.961204691263    91.95428705     0.00000000
 H     11   8   2     0.983678678453     8.36151099   179.93208421

---------------------------
INTERNAL COORDINATES (A.U.)
---------------------------
 C      0   0   0     0.000000000000     0.00000000     0.00000000
 C      1   0   0     2.715800875708     0.00000000     0.00000000
 C      1   2   0     2.845143530650   120.11096602     0.00000000
 H      3   1   2     2.083864788303   110.34349995   239.02059565
 H      3   1   2     2.083865159703   110.34331439   120.98865468
 H      3   1   2     2.072722534036   110.75493724     0.00000000
 O      1   2   3     2.429974494264   118.52794467   180.01221405
 O      2   1   3     2.360708913305   128.49588552     0.00000000
 O      2   1   3     2.594047186702   111.98005149   180.00648738
 H      9   2   1     1.855503451019   101.10483963     0.00000000
 O      8   2   1     5.218264878560   108.00571093   179.95852645
 H     11   8   2     1.816413625127    91.95428705     0.00000000
 H     11   8   2     1.858883306054     8.36151099   179.93208421

---------------------
BASIS SET INFORMATION
---------------------
There are 3 groups of distinct atoms

 Group   1 Type C   : 18s5p2d contracted to 4s3p2d pattern {8811/311/11}
 Group   2 Type H   : 5s2p contracted to 3s2p pattern {311/11}
 Group   3 Type O   : 18s5p2d contracted to 4s3p2d pattern {8811/311/11}

Atom   0C    basis set group =>   1
Atom   1C    basis set group =>   1
Atom   2C    basis set group =>   1
Atom   3H    basis set group =>   2
Atom   4H    basis set group =>   2
Atom   5H    basis set group =>   2
Atom   6O    basis set group =>   3
Atom   7O    basis set group =>   3
Atom   8O    basis set group =>   3
Atom   9H    basis set group =>   2
Atom  10O    basis set group =>   3
Atom  11H    basis set group =>   2
Atom  12H    basis set group =>   2


           ************************************************************
           *        Program running with 8 parallel MPI-processes     *
           *              working on a common directory               *
           ************************************************************
------------------------------------------------------------------------------
                             ORCA STARTUP CALCULATIONS
------------------------------------------------------------------------------
------------------------------------------------------------------------------
                   ___                                                        
                  /   \      - P O W E R E D   B Y -                         
                 /     \                                                     
                 |  |  |   _    _      __       _____    __    __             
                 |  |  |  | |  | |    /  \     |  _  \  |  |  /  |          
                  \  \/   | |  | |   /    \    | | | |  |  | /  /          
                 / \  \   | |__| |  /  /\  \   | |_| |  |  |/  /          
                |  |  |   |  __  | /  /__\  \  |    /   |      \           
                |  |  |   | |  | | |   __   |  |    \   |  |\   \          
                \     /   | |  | | |  |  |  |  | |\  \  |  | \   \       
                 \___/    |_|  |_| |__|  |__|  |_| \__\ |__|  \__/        
                                                                              
                      - O R C A' S   B I G   F R I E N D -                    
                                      &                                       
                       - I N T E G R A L  F E E D E R -                       
                                                                              
 v1 FN, 2020, v2 2021, v3 2022-2024                                           
------------------------------------------------------------------------------


----------------------
SHARK INTEGRAL PACKAGE
----------------------

Number of atoms                             ...     13
Number of basis functions                   ...    257
Number of shells                            ...    135
Maximum angular momentum                    ...      2
Integral batch strategy                     ... SHARK/LIBINT Hybrid
RI-J (if used) integral strategy            ... SPLIT-RIJ (Revised 2003 algorithm where possible)
Printlevel                                  ...      1
Contraction scheme used                     ... PARTIAL GENERAL contraction
Prescreening option                         ... SCHWARTZ
   Thresh                                   ... 2.500e-11
   Tcut                                     ... 2.500e-12
   Tpresel                                  ... 2.500e-12 
Coulomb Range Separation                    ... NOT USED
Exchange Range Separation                   ... Long Range
   Mu parameter                             ... 2.000e-01
   Scaling (regular/separated)              ... 2.220e-01 7.780e-01
Robust (split-)RI terms used:
  metric    (central integrals)             ... YES
  density   (r.h.s.  integrals)             ... YES
  potential (l.h.s.  integrals)             ... YES
Multipole approximations                    ... NOT USED
Finite Nucleus Model                        ... NOT USED
CABS basis                                  ... NOT available
Auxiliary Coulomb fitting basis             ... NOT available
Auxiliary J/K fitting basis                 ... NOT available
Auxiliary Correlation fitting basis         ... NOT available
Auxiliary 'external' fitting basis          ... NOT available

Checking pre-screening integrals            ... done (  0.0 sec) Dimension = 135
Save PGC pre-screening integrals            ... done (  0.0 sec) Dimension = 135
Calculate PGC overlap integrals             ... done (  0.0 sec) Dimension = 93
Calculating pre-screening integrals (ORCA)  ... done (  0.1 sec) Dimension = 93
Shell pair information
Shell pair cut-off parameter TPreSel        ...   2.5e-12
Total number of shell pairs                 ...      9180
Shell pairs after pre-screening             ...      7532
Total number of primitive shell pairs       ...     13080
Primitive shell pairs kept                  ...      9874
          la=0 lb=0:   2711 shell pairs
          la=1 lb=0:   2626 shell pairs
          la=1 lb=1:    548 shell pairs
          la=2 lb=0:   1094 shell pairs
          la=2 lb=1:    450 shell pairs
          la=2 lb=2:    103 shell pairs

Checking whether 4 symmetric matrices of dimension 257 fit in memory
:Max Core in MB      =   8000.00
 MB in use           =      9.47
 MB left             =   7990.53
 MB needed           =      1.01
 Data fit in memory  = YES
Calculating Nuclear repulsion               ... done (  0.0 sec) ENN=    301.781966361163 Eh

Diagonalization of the overlap matrix:
Smallest eigenvalue                        ... 1.943e-05
Time for diagonalization                   ...    0.007 sec
Threshold for overlap eigenvalues          ... 1.000e-07
Number of eigenvalues below threshold      ... 0
Time for construction of square roots      ...    0.003 sec
Total time needed                          ...    0.011 sec

-------------------
DFT GRID GENERATION
-------------------

General Integration Accuracy     IntAcc      ... 4.959
Radial Grid Type                 RadialGrid  ... OptM3 with GC (2021)
Angular Grid (max. ang.)         AngularGrid ... 6 (Lebedev-590)
Angular grid pruning method      GridPruning ... 4 (adaptive)
Weight generation scheme         WeightScheme... mBecke (2022)
Basis function cutoff            BFCut       ... 1.0000e-11
Integration weight cutoff        WCut        ... 1.0000e-14
Partially contracted basis set               ... off
Rotationally invariant grid construction     ... off
Angular grids for H and He will be reduced by one unit
Diffuse basis detected: some atoms will have their outermost
                        angular grid increased by 1.

Total number of grid points                  ...   162629
Total number of batches                      ...     2548
Average number of points per batch           ...       63
Average number of grid points per atom       ...    12510

---------------------
SHARK GRID GENERATION
---------------------

General Integration Accuracy     IntAcc      ... 4.959
Radial Grid Type                 RadialGrid  ... OptM3 with GC (2021)
Angular Grid (max. ang.)         AngularGrid ... 6 (Lebedev-590)
Angular grid pruning method      GridPruning ... 4 (adaptive)
Weight generation scheme         WeightScheme... mBecke (2022)
Basis function cutoff            BFCut       ... 1.0000e-11
Integration weight cutoff        WCut        ... 1.0000e-14
Partially contracted basis set               ... off
Rotationally invariant grid construction     ... off
Angular grids for H and He will be reduced by one unit
Diffuse basis detected: some atoms will have their outermost
                        angular grid increased by 1.
Steep s-basis detected: some atoms will have their radial
                        grid points doubled.

Total number of grid points                  ...   266736
Total number of batches                      ...     4176
Average number of points per batch           ...       63
Average number of grid points per atom       ...    20518
Grids setup in   7.8 sec
Initializing property integral containers    ... done (  0.0 sec)

SHARK setup successfully completed in   8.0 seconds

Maximum memory used throughout the entire STARTUP-calculation: 61.0 MB


           ************************************************************
           *        Program running with 8 parallel MPI-processes     *
           *              working on a common directory               *
           ************************************************************
-------------------------------------------------------------------------------
                                 ORCA GUESS
                   Start orbitals & Density for SCF / CASSCF
-------------------------------------------------------------------------------

------------
SCF SETTINGS
------------
Hamiltonian:
 Density Functional     Method          .... DFT(GTOs)
  Functional kind                       .... Exchange-Correlation
  Functional name                       .... wB97X-D range-separated functional
  Functional family                     .... Hybrid GGA
  Functional refs                              
    [ 0] J.-D. Chai and M. Head-Gordon.,  Phys. Chem. Chem. Phys. 10, 6615-6620 (2008), doi: 10.1039/B810189B
  Fraction of HF Exchange (short range) .... 0.2220
  Fraction of HF Exchange ( int64 range )  .... 1.0000
  Range separation parameter mu         .... 0.2000
  Functional external parameters        .... 18
    Parameter  0 _cx0       =  7.779640e-01 : u^0 coefficient for exchange
    Parameter  1 _cx1       =  6.611600e-01 : u^1 coefficient for exchange
    Parameter  2 _cx2       =  5.745410e-01 : u^2 coefficient for exchange
    Parameter  3 _cx3       = -5.256710e+00 : u^3 coefficient for exchange
    Parameter  4 _cx4       =  1.163860e+01 : u^4 coefficient for exchange
    Parameter  5 _css0      =  1.000000e+00 : u^0 coefficient for same-spin correlation
    Parameter  6 _css1      = -6.905390e+00 : u^1 coefficient for same-spin correlation
    Parameter  7 _css2      =  3.133430e+01 : u^2 coefficient for same-spin correlation
    Parameter  8 _css3      = -5.105330e+01 : u^3 coefficient for same-spin correlation
    Parameter  9 _css4      =  2.644230e+01 : u^4 coefficient for same-spin correlation
    Parameter 10 _cos0      =  1.000000e+00 : u^0 coefficient for opposite-spin correlation
    Parameter 11 _cos1      =  1.794130e+00 : u^1 coefficient for opposite-spin correlation
    Parameter 12 _cos2      = -1.204770e+01 : u^2 coefficient for opposite-spin correlation
    Parameter 13 _cos3      =  1.408470e+01 : u^3 coefficient for opposite-spin correlation
    Parameter 14 _cos4      = -8.508090e+00 : u^4 coefficient for opposite-spin correlation
    Parameter 15 _alpha     =  1.000000e+00 : fraction of HF exchange
    Parameter 16 _beta      = -7.779640e-01 : fraction of short-range exchange
    Parameter 17 _omega     =  2.000000e-01 : range-separation constant
 Long-range corrected/Screened/Range-Separated Hybrid DFT is turned on
   Amount of maximum screened exact exchange              ....  0.777964
   Range separation parameter mu (erf(mu*r12)/r12)        ....  0.200000


General Settings:
 Integral files         IntName         .... t1_freq_1_wat
 Hartree-Fock type      HFTyp           .... UHF
 Total Charge           Charge          ....    0
 Multiplicity           Mult            ....    3
 Number of Electrons    NEL             ....   56
 Basis Dimension        Dim             ....  215
 Nuclear Repulsion      ENuc            ....    301.7819663612 Eh

Convergence Acceleration:
 AO-DIIS                CNVDIIS         .... on
   Start iteration      DIISMaxIt       ....    12
   Startup error        DIISStart       ....  0.200000
   # of expansion vecs  DIISMaxEq       ....     5
   Bias factor          DIISBfac        ....   1.050
   Max. coefficient     DIISMaxC        ....  10.000
 MO-DIIS                CNVKDIIS        .... off
 Trust-Rad. Augm. Hess. CNVTRAH         .... auto
   Auto Start mean grad. ratio tolernc. ....  1.125000
   Auto Start start iteration           ....    50
   Auto Start num. interpolation iter.  ....    10
   Max. Number of Micro iterations      ....    24
   Max. Number of Macro iterations      .... Maxiter - #DIIS iter
   Number of Davidson start vectors     ....     2
   Converg. threshold    (grad. norm)   ....   1.000e-05
   Grad. Scal. Fac. for Micro threshold ....   0.100
   Minimum threshold for Micro iter.    ....   1.000e-02
   NR start threshold (gradient norm)   ....   1.000e-04
   Initial trust radius                 ....   0.400
   Minimum AH scaling param. (alpha)    ....   1.000
   Maximum AH scaling param. (alpha)    .... 1000.000
   Quad. conv. algorithm                .... NR
   White noise on init. David. guess    .... on
   Maximum white noise                  ....   0.010
   Pseudo random numbers                .... off
   Inactive MOs                         .... canonical
   Orbital update algorithm             .... Taylor
   Preconditioner                       .... Diag
   Full preconditioner red. dimension   ....   250
 SOSCF                 CNVSOSCF           .... on
   Start iteration     SOSCFMaxIt         ....   150
   Startup grad/error  SOSCFStart         ....  0.003300
   Hessian update      SOSCFHessUp        .... L-BFGS
   Autom. constraints  SOSCFAutoConstrain .... off
 Level Shifting         CNVShift        .... on
   Level shift para.    LevelShift      ....    0.2500
   Turn off err/grad.   ShiftErr        ....    0.0010
 Zerner damping         CNVZerner       .... off
 Static damping         CNVDamp         .... on
   Fraction old density DampFac         ....    0.7000
   Max. Damping (<1)    DampMax         ....    0.9800
   Min. Damping (>=0)   DampMin         ....    0.0000
   Turn off err/grad.   DampErr         ....    0.1000

SCF Procedure:
 Maximum # iterations   MaxIter         ....   125
 SCF integral mode      SCFMode         .... Direct
   Integral package                     .... SHARK and LIBINT hybrid scheme
 Reset frequency        DirectResetFreq ....    20
 Integral Threshold     Thresh          ....  2.500e-11 Eh
 Primitive CutOff       TCut            ....  2.500e-12 Eh

Convergence Tolerance:
 Convergence Check Mode ConvCheckMode   .... Total+1el-Energy
 Convergence forced     ConvForced      .... 0
 Energy Change          TolE            ....  1.000e-08 Eh
 1-El. energy change                    ....  1.000e-05 Eh
 Orbital Gradient       TolG            ....  1.000e-05
 Orbital Rotation angle TolX            ....  1.000e-05
 DIIS Error             TolErr          ....  5.000e-07

------------------------------
INITIAL GUESS: MODEL POTENTIAL
------------------------------
Loading Hartree-Fock densities                     ... done
Calculating cut-offs                               ... done
Initializing the effective Hamiltonian             ... done
Setting up the integral package (SHARK)            ... done
Starting the Coulomb interaction                   ... done (   0.1 sec)
Making the grid                                    ... done (   0.2 sec)
Mapping shells                                     ... done
Starting the XC term evaluation                    ... done (   0.1 sec)
  promolecular density results
     # of electrons  =     55.996550597
     EX+EC           =    -36.067582889
Transforming the Hamiltonian                       ... done (   0.0 sec)
Diagonalizing the Hamiltonian                      ... done (   0.0 sec)
Back transforming the eigenvectors                 ... done (   0.0 sec)
Now organizing SCF variables                       ... done
                      ------------------
                      INITIAL GUESS DONE (   0.5 sec)
                      ------------------
             **** ENERGY FILE WAS UPDATED (t1_freq_1_wat.en.tmp) ****
Finished Guess after   1.0 sec
Maximum memory used throughout the entire GUESS-calculation: 12.7 MB


           ************************************************************
           *        Program running with 8 parallel MPI-processes     *
           *              working on a common directory               *
           ************************************************************

-------------------------------------------------------------------------------------------
                                      ORCA LEAN-SCF
                              memory conserving SCF solver
-------------------------------------------------------------------------------------------

----------------------------------------D-I-I-S--------------------------------------------
Iteration    Energy (Eh)           Delta-E    RMSDP     MaxDP     DIISErr   Damp  Time(sec)
-------------------------------------------------------------------------------------------
               ***  Starting incremental Fock matrix formation  ***
    1    -418.5378201935563993     0.00e+00  4.00e-03  6.62e-02  9.76e-02  0.700   6.7
    2    -418.5817952449071981    -4.40e-02  3.16e-03  5.11e-02  5.10e-02  0.700   6.2
                               ***Turning on AO-DIIS***
    3    -418.6048612007460861    -2.31e-02  2.07e-03  2.73e-02  2.36e-02  0.700   6.2
    4    -418.6193167202816312    -1.45e-02  4.86e-03  5.34e-02  1.94e-02  0.000   6.0
    5    -418.6528136783044829    -3.35e-02  6.69e-04  9.04e-03  6.21e-03  0.000   6.2
    6    -418.6532861340862155    -4.72e-04  3.63e-04  6.18e-03  3.75e-03  0.000   5.9
                              *** Initializing SOSCF ***
---------------------------------------S-O-S-C-F--------------------------------------
Iteration    Energy (Eh)           Delta-E    RMSDP     MaxDP     MaxGrad    Time(sec)
--------------------------------------------------------------------------------------
    7    -418.6535064608430048    -2.20e-04  2.50e-04  3.72e-03  2.44e-03     5.9
               *** Restarting incremental Fock matrix formation ***
    8    -418.6536767394173921    -1.70e-04  2.70e-04  6.20e-03  4.03e-03     6.7
    9    -418.6538594907664219    -1.83e-04  1.98e-03  3.70e-02  2.76e-03     5.7
   10    -418.6543978732023561    -5.38e-04  4.93e-04  8.39e-03  2.51e-03     6.1
   11    -418.6545514878887388    -1.54e-04  3.23e-04  5.22e-03  1.47e-03     5.8
   12    -418.6545960518269567    -4.46e-05  1.82e-04  3.16e-03  9.24e-04     5.7
   13    -418.6546156346307725    -1.96e-05  6.43e-05  8.16e-04  2.30e-04     5.6
   14    -418.6546178282400206    -2.19e-06  2.90e-05  3.78e-04  1.17e-04     5.4
   15    -418.6546186827018801    -8.54e-07  1.34e-05  2.35e-04  9.52e-05     5.2
   16    -418.6546187983876735    -1.16e-07  8.59e-06  1.07e-04  4.55e-05     5.0
   17    -418.6546188615880055    -6.32e-08  1.32e-05  3.14e-04  1.06e-05     4.8
   18    -418.6546188660228154    -4.43e-09  9.07e-06  1.73e-04  7.89e-06     4.7
                 **** Energy Check signals convergence ****

               *****************************************************
               *                     SUCCESS                       *
               *           SCF CONVERGED AFTER  18 CYCLES          *
               *****************************************************

             **** ENERGY FILE WAS UPDATED (t1_freq_1_wat.en.tmp) ****

----------------
TOTAL SCF ENERGY
----------------

Total Energy       :       -418.65461886851745 Eh          -11392.17135 eV

Components:
Nuclear Repulsion  :        301.78196636116252 Eh            8211.90479 eV
Electronic Energy  :       -720.43658522967996 Eh          -19604.07614 eV
One Electron Energy:      -1170.06714534286539 Eh          -31839.14570 eV
Two Electron Energy:        449.63056011318542 Eh           12235.06956 eV

Virial components:
Potential Energy   :       -834.75301552001758 Eh          -22714.78435 eV
Kinetic Energy     :        416.09839665150014 Eh           11322.61300 eV
Virial Ratio       :          2.00614331186466

DFT components:
N(Alpha)           :       29.000023237990 electrons
N(Beta)            :       27.000033689365 electrons
N(Total)           :       56.000056927355 electrons
E(XC)              :      -36.670503503873 Eh       

---------------
SCF CONVERGENCE
---------------

  Last Energy change         ...    4.4348e-09  Tolerance :   1.0000e-08
  Last MAX-Density change    ...    1.7302e-04  Tolerance :   1.0000e-07
  Last RMS-Density change    ...    9.0738e-06  Tolerance :   5.0000e-09
  Last DIIS Error            ...    2.4444e-03  Tolerance :   5.0000e-07
  Last Orbital Gradient      ...    7.8895e-06  Tolerance :   1.0000e-05
  Last Orbital Rotation      ...    2.9116e-05  Tolerance :   1.0000e-05


----------------------
UHF SPIN CONTAMINATION
----------------------

Warning: in a DFT calculation there is little theoretical justification to 
         calculate <S**2> as in Hartree-Fock theory. We will do it anyways
         but you should keep in mind that the values have only limited relevance

Expectation value of <S**2>     :     2.013136
Ideal value S*(S+1) for S=1.0   :     2.000000
Deviation                       :     0.013136

----------------
ORBITAL ENERGIES
----------------
                 SPIN UP ORBITALS
  NO   OCC          E(Eh)            E(eV) 
   0   1.0000     -19.406200      -528.0696 
   1   1.0000     -19.356131      -526.7071 
   2   1.0000     -19.322692      -525.7972 
   3   1.0000     -19.235711      -523.4303 
   4   1.0000     -10.478651      -285.1386 
   5   1.0000     -10.429558      -283.8027 
   6   1.0000     -10.358413      -281.8667 
   7   1.0000      -1.268643       -34.5215 
   8   1.0000      -1.228297       -33.4237 
   9   1.0000      -1.166524       -31.7427 
  10   1.0000      -1.075721       -29.2719 
  11   1.0000      -0.920698       -25.0535 
  12   1.0000      -0.827102       -22.5066 
  13   1.0000      -0.723727       -19.6936 
  14   1.0000      -0.677296       -18.4302 
  15   1.0000      -0.634004       -17.2521 
  16   1.0000      -0.621342       -16.9076 
  17   1.0000      -0.592107       -16.1120 
  18   1.0000      -0.559660       -15.2291 
  19   1.0000      -0.555648       -15.1199 
  20   1.0000      -0.552797       -15.0424 
  21   1.0000      -0.525141       -14.2898 
  22   1.0000      -0.517496       -14.0818 
  23   1.0000      -0.506095       -13.7715 
  24   1.0000      -0.460791       -12.5388 
  25   1.0000      -0.459094       -12.4926 
  26   1.0000      -0.417074       -11.3492 
  27   1.0000      -0.366003        -9.9594 
  28   1.0000      -0.313384        -8.5276 
  29   0.0000       0.023916         0.6508 
  30   0.0000       0.040591         1.1045 
  31   0.0000       0.046799         1.2735 
  32   0.0000       0.055307         1.5050 
  33   0.0000       0.074911         2.0384 
  34   0.0000       0.075723         2.0605 
  35   0.0000       0.079603         2.1661 
  36   0.0000       0.101356         2.7580 
  37   0.0000       0.105234         2.8636 
  38   0.0000       0.111402         3.0314 
  39   0.0000       0.124261         3.3813 

                 SPIN DOWN ORBITALS
  NO   OCC          E(Eh)            E(eV) 
   0   1.0000     -19.384690      -527.4842 
   1   1.0000     -19.354147      -526.6531 
   2   1.0000     -19.313584      -525.5494 
   3   1.0000     -19.235481      -523.4241 
   4   1.0000     -10.476830      -285.0890 
   5   1.0000     -10.423047      -283.6255 
   6   1.0000     -10.357381      -281.8387 
   7   1.0000      -1.246178       -33.9102 
   8   1.0000      -1.188051       -32.3285 
   9   1.0000      -1.149998       -31.2930 
  10   1.0000      -1.074960       -29.2512 
  11   1.0000      -0.895842       -24.3771 
  12   1.0000      -0.800243       -21.7757 
  13   1.0000      -0.710377       -19.3303 
  14   1.0000      -0.646203       -17.5841 
  15   1.0000      -0.608751       -16.5650 
  16   1.0000      -0.586701       -15.9650 
  17   1.0000      -0.576565       -15.6891 
  18   1.0000      -0.553464       -15.0605 
  19   1.0000      -0.538794       -14.6613 
  20   1.0000      -0.537467       -14.6252 
  21   1.0000      -0.504435       -13.7264 
  22   1.0000      -0.485844       -13.2205 
  23   1.0000      -0.457186       -12.4407 
  24   1.0000      -0.433273       -11.7900 
  25   1.0000      -0.396881       -10.7997 
  26   1.0000      -0.365266        -9.9394 
  27   0.0000      -0.179725        -4.8906 
  28   0.0000      -0.055502        -1.5103 
  29   0.0000       0.026393         0.7182 
  30   0.0000       0.041968         1.1420 
  31   0.0000       0.051534         1.4023 
  32   0.0000       0.056352         1.5334 
  33   0.0000       0.076408         2.0792 
  34   0.0000       0.080700         2.1960 
  35   0.0000       0.103354         2.8124 
  36   0.0000       0.106745         2.9047 
  37   0.0000       0.107420         2.9231 
*Only the first 10 virtual orbitals were printed.

                    ********************************
                    * MULLIKEN POPULATION ANALYSIS *
                    ********************************

--------------------------------------------
MULLIKEN ATOMIC CHARGES AND SPIN POPULATIONS
--------------------------------------------
   0 C :    0.070772    0.468586
   1 C :    0.971798    0.098291
   2 C :    0.554134    0.034130
   3 H :   -0.001832    0.020567
   4 H :   -0.001839    0.020559
   5 H :   -0.198556    0.000477
   6 O :   -0.536018    0.904372
   7 O :   -0.571556    0.377805
   8 O :   -0.505455    0.075479
   9 H :    0.213514   -0.003548
  10 O :   -0.309191    0.008933
  11 H :    0.117925   -0.000420
  12 H :    0.196303   -0.005231
Sum of atomic charges         :   -0.0000000
Sum of atomic spin populations:    2.0000000

-----------------------------------------------------
MULLIKEN REDUCED ORBITAL CHARGES AND SPIN POPULATIONS
-----------------------------------------------------
CHARGE
  0 C s       :     3.191608  s :     3.191608
      pz      :     0.939446  p :     2.462357
      px      :     0.777384
      py      :     0.745527
      dz2     :     0.012568  d :     0.275264
      dxz     :     0.081378
      dyz     :     0.032591
      dx2y2   :     0.146922
      dxy     :     0.001804

  1 C s       :     3.060418  s :     3.060418
      pz      :     0.788045  p :     1.813329
      px      :     0.423504
      py      :     0.601780
      dz2     :    -0.002007  d :     0.154455
      dxz     :     0.032613
      dyz     :     0.054131
      dx2y2   :     0.080578
      dxy     :    -0.010860

  2 C s       :     3.024594  s :     3.024594
      pz      :     0.868905  p :     2.460932
      px      :     0.986966
      py      :     0.605061
      dz2     :    -0.008081  d :    -0.039660
      dxz     :    -0.016736
      dyz     :     0.005689
      dx2y2   :     0.003481
      dxy     :    -0.024013

  3 H s       :     1.011149  s :     1.011149
      pz      :     0.005073  p :    -0.009317
      px      :    -0.010470
      py      :    -0.003919

  4 H s       :     1.011161  s :     1.011161
      pz      :     0.005080  p :    -0.009322
      px      :    -0.010486
      py      :    -0.003916

  5 H s       :     1.179490  s :     1.179490
      pz      :    -0.008781  p :     0.019066
      px      :     0.025525
      py      :     0.002322

  6 O s       :     4.151992  s :     4.151992
      pz      :     1.727767  p :     4.341593
      px      :     1.277600
      py      :     1.336226
      dz2     :     0.002262  d :     0.042433
      dxz     :     0.000772
      dyz     :     0.016549
      dx2y2   :     0.010778
      dxy     :     0.012072

  7 O s       :     4.055484  s :     4.055484
      pz      :     1.544881  p :     4.479458
      px      :     1.629423
      py      :     1.305153
      dz2     :     0.002009  d :     0.036614
      dxz     :     0.001677
      dyz     :     0.015856
      dx2y2   :     0.007274
      dxy     :     0.009799

  8 O s       :     3.981112  s :     3.981112
      pz      :     1.805810  p :     4.503394
      px      :     1.508124
      py      :     1.189460
      dz2     :     0.001508  d :     0.020949
      dxz     :     0.009010
      dyz     :     0.004735
      dx2y2   :     0.004502
      dxy     :     0.001195

  9 H s       :     0.716576  s :     0.716576
      pz      :     0.029821  p :     0.069911
      px      :     0.020460
      py      :     0.019629

 10 O s       :     3.810881  s :     3.810881
      pz      :     1.906046  p :     4.506797
      px      :     1.338287
      py      :     1.262464
      dz2     :    -0.001911  d :    -0.008488
      dxz     :     0.001789
      dyz     :     0.001487
      dx2y2   :    -0.010958
      dxy     :     0.001106

 11 H s       :     0.779089  s :     0.779089
      pz      :     0.047074  p :     0.102986
      px      :     0.024148
      py      :     0.031764

 12 H s       :     0.740574  s :     0.740574
      pz      :     0.045158  p :     0.063123
      px      :     0.002737
      py      :     0.015228


SPIN
  0 C s       :    -0.022288  s :    -0.022288
      pz      :     0.456196  p :     0.493586
      px      :     0.038613
      py      :    -0.001222
      dz2     :    -0.001697  d :    -0.002713
      dxz     :     0.010161
      dyz     :     0.008871
      dx2y2   :    -0.006909
      dxy     :    -0.013139

  1 C s       :    -0.014292  s :    -0.014292
      pz      :     0.070505  p :     0.088760
      px      :     0.022348
      py      :    -0.004094
      dz2     :    -0.000013  d :     0.023824
      dxz     :     0.021146
      dyz     :     0.001127
      dx2y2   :     0.000910
      dxy     :     0.000653

  2 C s       :    -0.005100  s :    -0.005100
      pz      :    -0.002547  p :     0.034339
      px      :     0.005213
      py      :     0.031673
      dz2     :    -0.000153  d :     0.004892
      dxz     :    -0.004044
      dyz     :     0.001446
      dx2y2   :     0.005618
      dxy     :     0.002025

  3 H s       :     0.022772  s :     0.022772
      pz      :    -0.000126  p :    -0.002206
      px      :    -0.002681
      py      :     0.000601

  4 H s       :     0.022763  s :     0.022763
      pz      :    -0.000127  p :    -0.002204
      px      :    -0.002678
      py      :     0.000601

  5 H s       :    -0.001236  s :    -0.001236
      pz      :     0.000364  p :     0.001713
      px      :    -0.000211
      py      :     0.001561

  6 O s       :     0.032057  s :     0.032057
      pz      :     0.191807  p :     0.873623
      px      :     0.664889
      py      :     0.016927
      dz2     :    -0.000014  d :    -0.001308
      dxz     :    -0.000196
      dyz     :     0.001826
      dx2y2   :    -0.000143
      dxy     :    -0.002780

  7 O s       :     0.017254  s :     0.017254
      pz      :     0.178532  p :     0.361651
      px      :     0.169798
      py      :     0.013320
      dz2     :     0.000039  d :    -0.001100
      dxz     :    -0.000042
      dyz     :    -0.000612
      dx2y2   :    -0.000097
      dxy     :    -0.000386

  8 O s       :     0.007190  s :     0.007190
      pz      :     0.032214  p :     0.068650
      px      :    -0.005941
      py      :     0.042377
      dz2     :    -0.000245  d :    -0.000362
      dxz     :    -0.000570
      dyz     :     0.000169
      dx2y2   :    -0.000420
      dxy     :     0.000704

  9 H s       :    -0.008364  s :    -0.008364
      pz      :     0.000195  p :     0.004816
      px      :     0.004980
      py      :    -0.000358

 10 O s       :    -0.000284  s :    -0.000284
      pz      :     0.000850  p :     0.009135
      px      :     0.008074
      py      :     0.000211
      dz2     :     0.000007  d :     0.000082
      dxz     :    -0.000004
      dyz     :     0.000000
      dx2y2   :     0.000054
      dxy     :     0.000025

 11 H s       :    -0.000356  s :    -0.000356
      pz      :    -0.000051  p :    -0.000064
      px      :     0.000080
      py      :    -0.000093

 12 H s       :    -0.003273  s :    -0.003273
      pz      :    -0.000016  p :    -0.001958
      px      :    -0.001741
      py      :    -0.000202



                     *******************************
                     * LOEWDIN POPULATION ANALYSIS *
                     *******************************

-------------------------------------------
LOEWDIN ATOMIC CHARGES AND SPIN POPULATIONS
-------------------------------------------
   0 C :   -0.293507    0.436124
   1 C :   -0.354562    0.179175
   2 C :    0.201164    0.102363
   3 H :    0.009106    0.014952
   4 H :    0.009103    0.014951
   5 H :    0.006723    0.007816
   6 O :    0.224598    0.826806
   7 O :    0.155943    0.332413
   8 O :    0.261276    0.068371
   9 H :   -0.083765    0.008545
  10 O :    0.196704    0.007743
  11 H :   -0.127865   -0.000101
  12 H :   -0.204920    0.000842

----------------------------------------------------
LOEWDIN REDUCED ORBITAL CHARGES AND SPIN POPULATIONS
----------------------------------------------------
CHARGE
  0 C s       :     2.591478  s :     2.591478
      pz      :     0.770507  p :     2.574165
      px      :     0.915770
      py      :     0.887888
      dz2     :     0.102294  d :     1.127863
      dxz     :     0.147850
      dyz     :     0.201893
      dx2y2   :     0.359707
      dxy     :     0.316120

  1 C s       :     2.563141  s :     2.563141
      pz      :     0.690291  p :     2.442524
      px      :     0.872424
      py      :     0.879809
      dz2     :     0.116314  d :     1.348897
      dxz     :     0.160460
      dyz     :     0.245314
      dx2y2   :     0.396258
      dxy     :     0.430552

  2 C s       :     2.606578  s :     2.606578
      pz      :     0.949648  p :     2.770296
      px      :     0.908610
      py      :     0.912038
      dz2     :     0.063917  d :     0.421962
      dxz     :     0.126137
      dyz     :     0.032877
      dx2y2   :     0.104317
      dxy     :     0.094714

  3 H s       :     0.718545  s :     0.718545
      pz      :     0.117031  p :     0.272349
      px      :     0.087516
      py      :     0.067802

  4 H s       :     0.718548  s :     0.718548
      pz      :     0.117057  p :     0.272349
      px      :     0.087491
      py      :     0.067801

  5 H s       :     0.707405  s :     0.707405
      pz      :     0.072989  p :     0.285873
      px      :     0.086365
      py      :     0.126518

  6 O s       :     3.404418  s :     3.404418
      pz      :     1.571258  p :     4.178803
      px      :     1.155321
      py      :     1.452224
      dz2     :     0.020746  d :     0.192181
      dxz     :     0.002059
      dyz     :     0.053265
      dx2y2   :     0.060025
      dxy     :     0.056087

  7 O s       :     3.360756  s :     3.360756
      pz      :     1.410662  p :     4.306421
      px      :     1.457973
      py      :     1.437786
      dz2     :     0.021351  d :     0.176880
      dxz     :     0.004808
      dyz     :     0.037076
      dx2y2   :     0.059606
      dxy     :     0.054039

  8 O s       :     3.246389  s :     3.246389
      pz      :     1.598650  p :     4.309483
      px      :     1.476625
      py      :     1.234208
      dz2     :     0.024680  d :     0.182852
      dxz     :     0.016852
      dyz     :     0.020210
      dx2y2   :     0.046322
      dxy     :     0.074788

  9 H s       :     0.592079  s :     0.592079
      pz      :     0.117534  p :     0.491686
      px      :     0.207580
      py      :     0.166572

 10 O s       :     3.263929  s :     3.263929
      pz      :     1.711531  p :     4.485958
      px      :     1.415051
      py      :     1.359376
      dz2     :     0.010618  d :     0.053409
      dxz     :     0.000412
      dyz     :     0.000283
      dx2y2   :     0.040011
      dxy     :     0.002085

 11 H s       :     0.635770  s :     0.635770
      pz      :     0.146879  p :     0.492095
      px      :     0.118372
      py      :     0.226844

 12 H s       :     0.606867  s :     0.606867
      pz      :     0.148206  p :     0.598054
      px      :     0.336500
      py      :     0.113348


SPIN
  0 C s       :     0.003360  s :     0.003360
      pz      :     0.308008  p :     0.325276
      px      :     0.025243
      py      :    -0.007975
      dz2     :    -0.000757  d :     0.107488
      dxz     :     0.019874
      dyz     :     0.021814
      dx2y2   :     0.008135
      dxy     :     0.058422

  1 C s       :     0.003972  s :     0.003972
      pz      :     0.056782  p :     0.073776
      px      :     0.018996
      py      :    -0.002003
      dz2     :     0.001452  d :     0.101427
      dxz     :     0.072871
      dyz     :     0.012406
      dx2y2   :     0.005722
      dxy     :     0.008976

  2 C s       :     0.001693  s :     0.001693
      pz      :    -0.000493  p :     0.046016
      px      :     0.011784
      py      :     0.034726
      dz2     :     0.000698  d :     0.054654
      dxz     :     0.045264
      dyz     :     0.008108
      dx2y2   :    -0.000570
      dxy     :     0.001154

  3 H s       :     0.011801  s :     0.011801
      pz      :     0.000528  p :     0.003151
      px      :     0.001828
      py      :     0.000795

  4 H s       :     0.011800  s :     0.011800
      pz      :     0.000529  p :     0.003151
      px      :     0.001827
      py      :     0.000795

  5 H s       :     0.004890  s :     0.004890
      pz      :    -0.000436  p :     0.002926
      px      :     0.003700
      py      :    -0.000338

  6 O s       :     0.012849  s :     0.012849
      pz      :     0.186975  p :     0.771269
      px      :     0.573749
      py      :     0.010545
      dz2     :     0.000088  d :     0.042688
      dxz     :     0.001100
      dyz     :     0.034353
      dx2y2   :     0.001546
      dxy     :     0.005601

  7 O s       :     0.005604  s :     0.005604
      pz      :     0.160027  p :     0.316615
      px      :     0.147715
      py      :     0.008873
      dz2     :     0.000031  d :     0.010194
      dxz     :     0.001076
      dyz     :     0.007033
      dx2y2   :    -0.000014
      dxy     :     0.002069

  8 O s       :    -0.000511  s :    -0.000511
      pz      :     0.031367  p :     0.064201
      px      :    -0.003949
      py      :     0.036782
      dz2     :    -0.000391  d :     0.004681
      dxz     :     0.002696
      dyz     :     0.002174
      dx2y2   :    -0.000866
      dxy     :     0.001067

  9 H s       :    -0.005665  s :    -0.005665
      pz      :     0.001427  p :     0.014211
      px      :     0.013199
      py      :    -0.000415

 10 O s       :     0.000033  s :     0.000033
      pz      :     0.001172  p :     0.007871
      px      :     0.006713
      py      :    -0.000014
      dz2     :    -0.000048  d :    -0.000162
      dxz     :     0.000025
      dyz     :     0.000000
      dx2y2   :    -0.000125
      dxy     :    -0.000014

 11 H s       :    -0.000249  s :    -0.000249
      pz      :    -0.000102  p :     0.000149
      px      :     0.000209
      py      :     0.000042

 12 H s       :    -0.001116  s :    -0.001116
      pz      :     0.000516  p :     0.001958
      px      :     0.001618
      py      :    -0.000175



                      *****************************
                      * MAYER POPULATION ANALYSIS *
                      *****************************

  NA   - Mulliken gross atomic population
  ZA   - Total nuclear charge
  QA   - Mulliken gross atomic charge
  VA   - Mayer's total valence
  BVA  - Mayer's bonded valence
  FA   - Mayer's free valence

  ATOM       NA         ZA         QA         VA         BVA        FA
  0 C      5.9292     6.0000     0.0708     3.8648     3.6088     0.2560
  1 C      5.0282     6.0000     0.9718     2.6543     2.6356     0.0186
  2 C      5.4459     6.0000     0.5541     3.8328     3.8286     0.0042
  3 H      1.0018     1.0000    -0.0018     0.8652     0.8645     0.0006
  4 H      1.0018     1.0000    -0.0018     0.8651     0.8645     0.0006
  5 H      1.1986     1.0000    -0.1986     0.8941     0.8941     0.0000
  6 O      8.5360     8.0000    -0.5360     1.9061     1.3989     0.5072
  7 O      8.5716     8.0000    -0.5716     1.9059     1.8386     0.0673
  8 O      8.5055     8.0000    -0.5055     1.8174     1.8144     0.0030
  9 H      0.7865     1.0000     0.2135     0.9645     0.9643     0.0002
 10 O      8.3092     8.0000    -0.3092     1.9280     1.9280     0.0001
 11 H      0.8821     1.0000     0.1179     1.0237     1.0237     0.0000
 12 H      0.8037     1.0000     0.1963     0.9366     0.9366     0.0000

  Mayer bond orders larger than 0.100000
B(  0-C ,  1-C ) :   0.7704 B(  0-C ,  2-C ) :   1.3197 B(  0-C ,  3-H ) :   0.1325 
B(  0-C ,  4-H ) :   0.1324 B(  0-C ,  5-H ) :   0.2484 B(  0-C ,  6-O ) :   0.9563 
B(  0-C ,  8-O ) :   0.1499 B(  1-C ,  2-C ) :  -0.1416 B(  1-C ,  5-H ) :  -0.1687 
B(  1-C ,  6-O ) :   0.1314 B(  1-C ,  7-O ) :   1.5298 B(  1-C ,  8-O ) :   0.6479 
B(  2-C ,  3-H ) :   0.8580 B(  2-C ,  4-H ) :   0.8580 B(  2-C ,  5-H ) :   0.8570 
B(  6-O ,  7-O ) :   0.1649 B(  8-O ,  9-H ) :   0.9601 B( 10-O , 11-H ) :   1.0479 
B( 10-O , 12-H ) :   0.9050 

-------
TIMINGS
-------

Total SCF time: 0 days 0 hours 1 min 48 sec 

Total time                  ....     108.611 sec
Sum of individual times     ....     104.012 sec  ( 95.8%)

SCF preparation             ....       0.336 sec  (  0.3%)
Fock matrix formation       ....     102.218 sec  ( 94.1%)
  Startup                   ....       0.050 sec  (  0.0% of F)
  Coulomb+Exchange Fock     ....      89.197 sec  ( 87.3% of F)
  XC integration            ....      17.026 sec  ( 16.7% of F)
    XC Preparation          ....       0.000 sec  (  0.0% of XC)
    Basis function eval.    ....       4.067 sec  ( 23.9% of XC)
    Density eval.           ....       3.913 sec  ( 23.0% of XC)
    XC-Functional eval.     ....       1.182 sec  (  6.9% of XC)
    XC-Potential eval.      ....       6.963 sec  ( 40.9% of XC)
Diagonalization             ....       0.000 sec  (  0.0%)
Density matrix formation    ....       0.260 sec  (  0.2%)
Total Energy calculation    ....       0.062 sec  (  0.1%)
Population analysis         ....       0.071 sec  (  0.1%)
Orbital Transformation      ....       0.075 sec  (  0.1%)
Orbital Orthonormalization  ....       0.000 sec  (  0.0%)
DIIS solution               ....       0.355 sec  (  0.3%)
SOSCF solution              ....       0.635 sec  (  0.6%)
Finished LeanSCF after 108.6 sec

Maximum memory used throughout the entire LEANSCF-calculation: 15.6 MB


           ************************************************************
           *        Program running with 8 parallel MPI-processes     *
           *              working on a common directory               *
           ************************************************************

------------------------------------------------------------------------------
                         ORCA PROPERTY INTEGRAL CALCULATIONS
------------------------------------------------------------------------------

GBWName                                   ... t1_freq_1_wat.gbw
Number of atoms                           ...     13
Number of basis functions                 ...    257
Max core memory                           ...   8000 MB

Dipole integrals                          ... YES
Quadrupole integrals                      ...  NO
Linear momentum integrals                 ...  NO
Angular momentum integrals                ...  NO
Higher moments length integrals           ...  NO
Higher moments velocity integrals         ...  NO
Kinetic energy integrals                  ...  NO
GIAO right hand sides                     ...  NO
GIAO dipole derivative integrals          ...  NO
SOC integrals                             ...  NO
EPR diamagnetic integrals (GIAO)          ...  NO
EPR gauge integrals                       ...  NO
Field gradient integrals                  ...  NO (   0 nuclei)
Spin-dipole/Fermi contact integrals       ...  NO (   0 nuclei)
Contact density integrals                 ...  NO (   0 nuclei)
Nucleus-orbit integrals                   ...  NO (   0 nuclei)
Geometric perturbations                   ... YES (  13 nuclei)

Choice of electric origin   ... Center of mass
Position of electric origin ... (  1.2920,  0.3754,  0.0014) 
Choice of magnetic origin   ... GIAO
Position of magnetic origin ... (  0.0000,  0.0000,  0.0000) 

Calculating integrals                     ... Electric Dipole (Length)     done (  0.0 sec)
Calculating integrals                     ... Geometrical perturbation right hand sides

-----------------------
GEOMETRIC PERTURBATIONS (13 nuclei)
-----------------------

MaxCore                            ...   8000 MB
Number of batches                  ...      1

BATCH   0: Atoms    0 -   12 ( 39 perturbations)
   => H(core) and overlap derivative integrals     ... done (     0.2 sec)
   => Making and storing internal U-coefficients   ... done (     0.0 sec)
   => Exact two electron derivative integrals      ... done (    50.2 sec)
   => Exact two-electron response operators        ... done (   163.8 sec)
   => XC derivative integrals                      ... done (    90.8 sec)
   => XC response operators                        ... done (    22.9 sec)
   => Completing and storing right hand sides      ... done (     0.1 sec)
   => Total time for right hand sides = 278.5 sec

  geometrical perturbations done (278.5 sec)

Property integrals calculated in 278.5 sec

Maximum memory used throughout the entire PROPINT-calculation: 89.9 MB

-------------------------   --------------------
FINAL SINGLE POINT ENERGY      -418.654618868517
-------------------------   --------------------



           ************************************************************
           *        Program running with 8 parallel MPI-processes     *
           *              working on a common directory               *
           ************************************************************
------------------------------------------------------------------------------
                         ORCA SCF GRADIENT CALCULATION
------------------------------------------------------------------------------

Nuc. rep. gradient        (SHARK) ... done (  0.0 sec)
HCore & Overlap gradient  (SHARK) ... done (  0.1 sec)
Two-electron gradient     (SHARK) ... done ( 17.9 sec)
XC gradient                       ... done (  4.5 sec)

------------------
CARTESIAN GRADIENT
------------------

   1   C   :    0.020030236   -0.008017389   -0.000009887
   2   C   :   -0.048480993   -0.020142159   -0.000009469
   3   C   :    0.013147361    0.003082666    0.000004559
   4   H   :   -0.002420070    0.000362196    0.001306584
   5   H   :   -0.002418900    0.000360882   -0.001307958
   6   H   :   -0.005896843    0.003421224   -0.000000596
   7   O   :    0.000064388   -0.013504811    0.000007333
   8   O   :    0.029190869    0.039252564    0.000016532
   9   O   :    0.023169512   -0.005837085    0.000009691
  10   H   :   -0.019078185    0.002331143   -0.000009877
  11   O   :    0.014765647    0.000907656    0.000019205
  12   H   :   -0.004787107    0.000455079   -0.000004703
  13   H   :   -0.017285914   -0.002671967   -0.000021413

Difference to translation invariance:
           :   -0.0000000000    0.0000000000    0.0000000000

Difference to rotation invariance:
           :    0.0000001660   -0.0000007554    0.0000133792

Norm of the Cartesian gradient     ...    0.0867715511
RMS gradient                       ...    0.0138945683
MAX gradient                       ...    0.0484809927

-------
TIMINGS
-------

Total SCF gradient time     ....       22.422 sec

Densities                   ....       0.001 sec  (  0.0%)
One electron gradient       ....       0.071 sec  (  0.3%)
Two electron gradient       ....      17.893 sec  ( 79.8%)
XC gradient                 ....       4.456 sec  ( 19.9%)

Maximum memory used throughout the entire SCFGRAD-calculation: 29.5 MB


           ************************************************************
           *        Program running with 8 parallel MPI-processes     *
           *              working on a common directory               *
           ************************************************************
------------------------------------------------------------------------------
                            ORCA SCF RESPONSE CALCULATION
------------------------------------------------------------------------------

GBWName                                 ... t1_freq_1_wat.gbw
Number of atoms                         ...     13
Number of basis functions               ...    257
Max core memory                         ...   8000 MB

Electric field perturbation             ...  NO
Quadrupolar field perturbation          ...  NO
Magnetic field perturbation (no GIAO)   ...  NO
Magnetic field perturbation (with GIAO) ...  NO
Linear momentum (velocity) perturbation ...  NO
Spin-orbit coupling perturbation        ...  NO
Choice of electric origin               ... Center of mass
Position of electric origin             ...     1.292018     0.375400     0.001421
Choice of magnetic origin               ... GIAO
Position of magnetic origin             ...     0.000000     0.000000     0.000000
Nuclear geometric perturbations         ... YES (  39 perturbations)
Nucleus-orbit perturbations             ...  NO (   0 perturbations)
Spin-dipole/Fermi contact perturbations ...  NO (   0 perturbations)

Total number of real perturbations      ...     39
Total number of imaginary perturbations ...      0
Total number of triplet perturbations   ...      0
Total number of SOC perturbations       ...      0

Using XC Grid                  ... (t1_freq_1_wat.grid_cpscf.tmp) 
Recalculating density on grid  ... (t1_freq_1_wat.grho_cpscf0.tmp) done
Calculating the xc-kernel      ... (t1_freq_1_wat.fxc_cpscf0.tmp) done

                                **********************
                                * REAL PERTURBATIONS *
                                **********************



-------------------
SHARK CP-SCF DRIVER
-------------------

Dimension of the orbital basis          ...    215
Dimension of the CPSCF-problem          ...  10470
Number of operators                     ...      2
Max. number of iterations               ...    128
Convergence Tolerance                   ... 1.0e-04
Number of perturbations                 ...     39
Perturbation type                       ... REAL

----------------------------
POPLE LINEAR EQUATION SOLVER
----------------------------

  ITERATION   0:   ||err||_max =   4.6416e-01 ( 284.5 sec   0/ 39 done)
  ITERATION   1:   ||err||_max =   2.4170e-01 ( 291.8 sec   0/ 39 done)
  ITERATION   2:   ||err||_max =   1.8357e-01 ( 284.4 sec   0/ 39 done)
  ITERATION   3:   ||err||_max =   1.6565e-01 ( 278.1 sec   0/ 39 done)
  ITERATION   4:   ||err||_max =   1.0977e-01 ( 296.7 sec   0/ 39 done)
  ITERATION   5:   ||err||_max =   6.3707e-02 ( 295.5 sec   0/ 39 done)
  ITERATION   6:   ||err||_max =   3.0876e-02 ( 278.0 sec   1/ 39 done)
  ITERATION   7:   ||err||_max =   1.3639e-02 ( 296.9 sec   1/ 39 done)
  ITERATION   8:   ||err||_max =   5.5406e-03 ( 271.2 sec   2/ 39 done)
  ITERATION   9:   ||err||_max =   2.3105e-03 ( 256.9 sec   4/ 39 done)
  ITERATION  10:   ||err||_max =   8.2282e-04 ( 240.7 sec  11/ 39 done)
  ITERATION  11:   ||err||_max =   3.9347e-04 ( 169.0 sec  21/ 39 done)
  ITERATION  12:   ||err||_max =   1.7430e-04 (  82.8 sec  30/ 39 done)
  ITERATION  13:   ||err||_max =   8.9169e-05 (  37.1 sec  39/ 39 done)

CP-SCF equations solved in 3363.6 sec
Response densities calculated in   0.1 sec

Maximum memory used throughout the entire SCFRESP-calculation: 125.1 MB


           ************************************************************
           *        Program running with 8 parallel MPI-processes     *
           *              working on a common directory               *
           ************************************************************

------------------------------------------------------------------------------
                              ORCA PROPERTY CALCULATIONS
------------------------------------------------------------------------------

GBWName                                 ... t1_freq_1_wat.gbw
Number of atoms                         ...     13
Number of basis functions               ...    257
Max core memory                         ...   8000 MB

Electric properties:
Dipole moment                           ... YES
Quadrupole moment                       ...  NO
Static polarizability (Dipole/Dipole)   ...  NO
Static polarizability (Dipole/Quad.)    ...  NO
Static polarizability (Quad./Quad.)     ...  NO
Static polarizability (Velocity)        ...  NO
Static hyperpolarizability              ...  NO

Atomic electric properties:
Dipole moment                           ...  NO
Quadrupole moment                       ...  NO
Static polarizability                   ...  NO

Choice of electric origin               ... Center of mass
Position of electric origin             ...     1.292018     0.375400     0.001421

General magnetic properties:
Magnetizability                         ...  NO

EPR properties:
g-Tensor (aka g-matrix)                 ...  NO
Zero-Field splitting spin-orbit         ...  NO
Zero-field splitting spin-spin          ...  NO
Hyperfine couplings                     ...  NO (   0 nuclei)
Quadrupole couplings                    ...  NO (   0 nuclei)
Contact density                         ...  NO (   0 nuclei)

NMR properties:
Chemical shifts                         ...  NO (   0 nuclei)
Spin-rotation constants                 ...  NO (   0 nuclei)
Spin-spin couplings                     ...  NO (   0 nuclei,    0 pairs)

Choice of magnetic origin               ... GIAO
Position of magnetic origin             ...     0.000000     0.000000     0.000000

Properties with geometric perturbations:
SCF Hessian                             ... YES
IR spectrum                             ... YES
VCD spectrum                            ...  NO
X-ray spectroscopy properties:
SCF XES/XAS/RIXS spectra                ...  NO

SCF SOC stabilization energy            ...  NO
Diagonal Born-Oppenheimer correction    ...  NO

-------------
DIPOLE MOMENT
-------------

Method             : SCF
Type of density    : Electron Density
Multiplicity       :   3
Irrep              :   0
Energy             :  -418.6546188685174457 Eh
Basis              : AO
                                X                 Y                 Z
Electronic contribution:      0.058799237      -3.036847379      -0.001640499
Nuclear contribution   :     -2.373276644       2.042830617      -0.000125815
                        -----------------------------------------
Total Dipole Moment    :     -2.314477407      -0.994016762      -0.001766314
                        -----------------------------------------
Magnitude (a.u.)       :      2.518904149
Magnitude (Debye)      :      6.402545528



--------------------
Rotational spectrum 
--------------------
 
Rotational constants in cm-1:             0.175530             0.044258             0.035582 
Rotational constants in MHz :          5262.252979          1326.829936          1066.735018 

Dipole components along the rotational axes: 
x,y,z [a.u.] :    -2.507174     0.242812    -0.000367 
x,y,z [Debye]:    -6.372729     0.617179    -0.000933 

 

Dipole moment calculation done in   0.1 sec 

-----------
SCF HESSIAN
-----------

Occupied/Occupied contributions to the Hessian:
   => Occupied/Occupied contributions              ... done (  0.2 sec)
Perturbed density contributions to the Hessian:
   => Perturbed density contributions              ... done (  0.0 sec)
Explicit contributions to the Hessian:
   => Nuclear repulsion Hessian                    ... done (  0.1 sec)
   => HCore and overlap Hessian                    ... done (  1.6 sec)
   => Exact two electron integral Hessian          ... done (148.6 sec)
   => XC-Hessian                                   ... done ( 35.7 sec)
   => Explicit contributions done
Dipole derivatives                                 ... done (  0.6 sec)
Mass weighting the Hessian           ... done
Calculating normal modes             ... done
Scaling frequencies                  ... done

-----------------------
VIBRATIONAL FREQUENCIES
-----------------------

Scaling factor for frequencies =  1.000000000  (already applied!)

     0:       0.00 cm**-1
     1:       0.00 cm**-1
     2:       0.00 cm**-1
     3:       0.00 cm**-1
     4:       0.00 cm**-1
     5:       0.00 cm**-1
     6:     -21.15 cm**-1  ***imaginary mode***
     7:      87.27 cm**-1
     8:     105.59 cm**-1
     9:     134.58 cm**-1
    10:     169.96 cm**-1
    11:     187.58 cm**-1
    12:     299.16 cm**-1
    13:     350.62 cm**-1
    14:     357.22 cm**-1
    15:     429.83 cm**-1
    16:     541.72 cm**-1
    17:     577.36 cm**-1
    18:     608.13 cm**-1
    19:     685.06 cm**-1
    20:     707.13 cm**-1
    21:     784.97 cm**-1
    22:     985.53 cm**-1
    23:    1010.91 cm**-1
    24:    1104.00 cm**-1
    25:    1187.52 cm**-1
    26:    1262.87 cm**-1
    27:    1383.80 cm**-1
    28:    1396.93 cm**-1
    29:    1433.30 cm**-1
    30:    1459.95 cm**-1
    31:    1614.46 cm**-1
    32:    1711.88 cm**-1
    33:    3023.23 cm**-1
    34:    3089.53 cm**-1
    35:    3154.92 cm**-1
    36:    3546.53 cm**-1
    37:    3571.79 cm**-1
    38:    3930.62 cm**-1


------------
NORMAL MODES
------------

These modes are the Cartesian displacements weighted by the diagonal matrix
M(i,i)=1/sqrt(m[i]) where m[i] is the mass of the displaced atom
Thus, these vectors are normalized but *not* orthogonal

                  0          1          2          3          4          5    
      0       0.000000   0.000000   0.000000   0.000000   0.000000   0.000000
      1       0.000000   0.000000   0.000000   0.000000   0.000000   0.000000
      2       0.000000   0.000000   0.000000   0.000000   0.000000   0.000000
      3       0.000000   0.000000   0.000000   0.000000   0.000000   0.000000
      4       0.000000   0.000000   0.000000   0.000000   0.000000   0.000000
      5       0.000000   0.000000   0.000000   0.000000   0.000000   0.000000
      6       0.000000   0.000000   0.000000   0.000000   0.000000   0.000000
      7       0.000000   0.000000   0.000000   0.000000   0.000000   0.000000
      8       0.000000   0.000000   0.000000   0.000000   0.000000   0.000000
      9       0.000000   0.000000   0.000000   0.000000   0.000000   0.000000
     10       0.000000   0.000000   0.000000   0.000000   0.000000   0.000000
     11       0.000000   0.000000   0.000000   0.000000   0.000000   0.000000
     12       0.000000   0.000000   0.000000   0.000000   0.000000   0.000000
     13       0.000000   0.000000   0.000000   0.000000   0.000000   0.000000
     14       0.000000   0.000000   0.000000   0.000000   0.000000   0.000000
     15       0.000000   0.000000   0.000000   0.000000   0.000000   0.000000
     16       0.000000   0.000000   0.000000   0.000000   0.000000   0.000000
     17       0.000000   0.000000   0.000000   0.000000   0.000000   0.000000
     18       0.000000   0.000000   0.000000   0.000000   0.000000   0.000000
     19       0.000000   0.000000   0.000000   0.000000   0.000000   0.000000
     20       0.000000   0.000000   0.000000   0.000000   0.000000   0.000000
[...]
     31      -0.003541  -0.005238   0.005131  -0.000256  -0.000348  -0.000000
     32       0.000001  -0.000010   0.000006   0.000002   0.000004  -0.000234
     33      -0.000520   0.103323  -0.053601  -0.009704  -0.013678   0.000000
     34      -0.001260  -0.001614   0.000547  -0.000157  -0.000221  -0.000000
     35       0.000014   0.000136  -0.000066  -0.000011  -0.000013  -0.000557
     36      -0.002189   0.015418  -0.007541  -0.005751  -0.012165  -0.000000
     37       0.022940   0.051188  -0.052033  -0.004203  -0.009057  -0.000001
     38      -0.000002   0.000012  -0.000038  -0.000017  -0.000043  -0.000313
                 30         31         32         33         34         35    
      0       0.016466   0.133491   0.006808  -0.000234  -0.000000   0.002891
      1       0.014106   0.110293   0.006038   0.000558  -0.000000  -0.000517
      2       0.000005   0.000011   0.000001   0.000000   0.000430   0.000001
      3       0.002527  -0.217484  -0.013184   0.000699   0.000000  -0.001138
      4       0.025018  -0.350893  -0.000180  -0.000190   0.000000  -0.001037
      5       0.000004  -0.000114  -0.000005   0.000000   0.000451  -0.000001
      6       0.034240  -0.022254  -0.001494  -0.049192  -0.000021   0.049682
      7       0.040981  -0.000262   0.000286   0.015346  -0.000002   0.077436
      8       0.000014  -0.000002  -0.000001  -0.000012   0.091568   0.000012
      9      -0.464792  -0.068709   0.000166   0.363177   0.413984  -0.147883
     10      -0.247510   0.037166  -0.002151   0.092320   0.105647  -0.028309
     11      -0.390741  -0.031546   0.000823  -0.529927  -0.559536   0.221405
     12      -0.464955  -0.068701   0.000167   0.362972  -0.413726  -0.147784
     13      -0.247444   0.037096  -0.002153   0.092296  -0.105611  -0.028296
     14       0.390517   0.031518  -0.000824   0.530117  -0.559692  -0.221464
     15       0.355279   0.058346   0.006244  -0.142283  -0.000010  -0.316826
     16      -0.087796  -0.013828  -0.001765  -0.366799  -0.000015  -0.864692
     17       0.000007   0.000042   0.000001  -0.000041   0.020271  -0.000092
     18      -0.000333  -0.015035  -0.000537   0.000007   0.000000  -0.000273
     19      -0.003869  -0.055525  -0.003676  -0.000461  -0.000000   0.000293
     20      -0.000000   0.000009   0.000001  -0.000000  -0.000074  -0.000000
     21      -0.005063   0.072055   0.002550  -0.000013  -0.000000   0.000392
     22      -0.019087   0.177781  -0.000575  -0.000095  -0.000000   0.000506
     23      -0.000004   0.000046   0.000001  -0.000000  -0.000030   0.000000
     24       0.003825   0.070558   0.000860  -0.000345  -0.000000  -0.000265
     25      -0.002197   0.023285  -0.001319   0.000014  -0.000000  -0.000177
     26      -0.000000   0.000030   0.000001  -0.000000  -0.000036  -0.000000
     27      -0.032331  -0.695900   0.028185   0.001760   0.000000   0.001454
     28       0.027342   0.500431  -0.022141   0.003918   0.000000   0.008325
     29       0.000014  -0.000112   0.000005   0.000002   0.000076   0.000005
     30      -0.000073   0.003583  -0.049090   0.000123   0.000000   0.000119
     31       0.000136   0.000561  -0.045361  -0.000079  -0.000000  -0.000127
     32      -0.000000   0.000004  -0.000071   0.000000  -0.000035   0.000000
     33      -0.002157  -0.024999   0.640009   0.000399   0.000000   0.000143
     34       0.000029  -0.000378   0.014492   0.000043  -0.000000   0.000201
     35      -0.000004  -0.000017   0.000757   0.000000  -0.000003   0.000000
     36       0.000733  -0.015832   0.152577  -0.001798  -0.000000  -0.001554
     37      -0.002057  -0.009424   0.748873   0.000831   0.000000   0.000731
     38       0.000003  -0.000050   0.000380  -0.000002   0.000072  -0.000001
                 36         37         38    
      0       0.002811  -0.000061  -0.000261
      1       0.001906   0.000643  -0.000462
      2      -0.000000   0.000000  -0.000000
      3       0.001800  -0.000795   0.000140
      4       0.005271  -0.005477   0.000420
      5       0.000002  -0.000001   0.000000
      6      -0.000722  -0.000083   0.000087
      7       0.000809  -0.000172  -0.000018
      8       0.000000   0.000000  -0.000000
      9       0.000893   0.000250   0.000028
     10      -0.000052   0.000163  -0.000082
     11      -0.000197  -0.000366  -0.000007
     12       0.000893   0.000249   0.000028
     13      -0.000054   0.000164  -0.000082
     14       0.000198   0.000367   0.000007
     15       0.000157  -0.000286  -0.000136
     16      -0.009407   0.001493   0.000513
     17      -0.000000   0.000000  -0.000000
     18      -0.002195   0.000457   0.000143
     19      -0.001523   0.000150   0.000204
     20       0.000001  -0.000000   0.000000
     21      -0.001251   0.000409  -0.000148
     22      -0.000961   0.002122  -0.000118
     23      -0.000000   0.000000  -0.000000
     24       0.032430  -0.014911   0.000327
     25       0.045156  -0.019351   0.000182
     26       0.000029  -0.000013   0.000000
     27      -0.509424   0.227969  -0.006025
     28      -0.758282   0.329416  -0.005578
     29      -0.000487   0.000211  -0.000004
     30      -0.023550  -0.053266   0.007983
     31       0.003636   0.007229  -0.061564
     32      -0.000026  -0.000060  -0.000010
     33      -0.015527  -0.036266  -0.045421
     34       0.028258   0.084026   0.993687
     35      -0.000009  -0.000016   0.000253
     36       0.390434   0.887639  -0.079881
     37      -0.090634  -0.199273  -0.014827
     38       0.000428   0.000974  -0.000100


-----------
IR SPECTRUM
-----------

 Mode   freq       eps      Int      T**2         TX        TY        TZ
       cm**-1   L/(mol*cm) km/mol    a.u.
----------------------------------------------------------------------------
  7:     87.27   0.000143    0.72  0.000510  (-0.020625  0.009187 -0.000201)
  8:    105.59   0.004748   23.99  0.014031  (-0.000085 -0.000005  0.118455)
  9:    134.58   0.007403   37.41  0.017165  ( 0.000195  0.000100 -0.131013)
 10:    169.96   0.000040    0.20  0.000074  ( 0.000060  0.000068  0.008619)
 11:    187.58   0.000057    0.29  0.000095  (-0.009727  0.000672 -0.000039)
 12:    299.16   0.002310   11.67  0.002409  (-0.045248  0.019027 -0.000030)
 13:    350.62   0.000080    0.40  0.000071  (-0.000199 -0.000314 -0.008425)
 14:    357.22   0.014727   74.42  0.012865  (-0.061315 -0.095424 -0.000028)
 15:    429.83   0.013749   69.48  0.009982  ( 0.047507 -0.087892  0.000017)
 16:    541.72   0.000226    1.14  0.000130  ( 0.004531  0.010461 -0.000007)
 17:    577.36   0.000421    2.13  0.000227  (-0.008354  0.012556  0.000084)
 18:    608.13   0.014009   70.80  0.007189  (-0.000075 -0.000044 -0.084787)
 19:    685.06   0.003749   18.95  0.001708  (-0.000165 -0.000086  0.041327)
 20:    707.13   0.020521  103.70  0.009056  ( 0.000075  0.000026 -0.095163)
 21:    784.97   0.003231   16.33  0.001284  (-0.034278  0.010457  0.000017)
 22:    985.53   0.001157    5.85  0.000366  (-0.016695 -0.009359 -0.000006)
 23:   1010.91   0.000347    1.75  0.000107  (-0.000002  0.000010  0.010352)
 24:   1104.00   0.011454   57.88  0.003238  ( 0.028320 -0.049353 -0.000003)
 25:   1187.52   0.147718  746.51  0.038818  ( 0.161435  0.112946  0.000052)
 26:   1262.87   0.020478  103.49  0.005060  (-0.071014 -0.004168 -0.000017)
 27:   1383.80   0.017020   86.01  0.003838  (-0.008571 -0.061358 -0.000020)
 28:   1396.93   0.054636  276.11  0.012205  ( 0.022981 -0.108061 -0.000026)
 29:   1433.30   0.001808    9.14  0.000394  ( 0.000001  0.000000 -0.019839)
 30:   1459.95   0.005446   27.52  0.001164  (-0.030815 -0.014645 -0.000007)
 31:   1614.46   0.004612   23.31  0.000892  (-0.029572  0.004123 -0.000010)
 32:   1711.88   0.040843  206.41  0.007445  ( 0.076000  0.040859  0.000072)
 33:   3023.23   0.002873   14.52  0.000297  (-0.017129 -0.001786 -0.000006)
 34:   3089.53   0.000905    4.57  0.000091  (-0.000002  0.000000  0.009560)
 35:   3154.92   0.001137    5.75  0.000112  (-0.004192 -0.009742 -0.000002)
 36:   3546.53   0.070885  358.22  0.006237  ( 0.074895  0.025058  0.000035)
 37:   3571.79   0.064863  327.79  0.005667  ( 0.074106  0.013240  0.000070)
 38:   3930.62   0.005932   29.98  0.000471  (-0.019523  0.009479 -0.000009)

* The epsilon (eps) is given for a Dirac delta lineshape.
** The dipole moment derivative (T) already includes vibrational overlap.

The first frequency considered to be a vibration is 7
The total number of vibrations considered is 32


--------------------------
THERMOCHEMISTRY AT 298.15K
--------------------------

Temperature         ...   298.15 K
Pressure            ...     1.00 atm
Total Mass          ...   106.08 AMU
Quasi RRHO          ...     True
Cut-Off Frequency   ...     1.00 cm^-1

Throughout the following assumptions are being made:
  (1) The electronic state is orbitally nondegenerate
      but the spin degeneracy is treated
  (2) There are no thermally accessible electronically excited states
  (3) Hindered rotations indicated by low frequency modes are not
      treated as such but are treated as vibrations and this may
      cause some error
  (4) All equations used are the standard statistical mechanics
      equations for an ideal gas
  (5) All vibrations are strictly harmonic

freq.      87.27  E(vib)   ...       0.48 
freq.     105.59  E(vib)   ...       0.45 
freq.     134.58  E(vib)   ...       0.42 
freq.     169.96  E(vib)   ...       0.38 
freq.     187.58  E(vib)   ...       0.36 
freq.     299.16  E(vib)   ...       0.26 
freq.     350.62  E(vib)   ...       0.23 
freq.     357.22  E(vib)   ...       0.22 
freq.     429.83  E(vib)   ...       0.18 
freq.     541.72  E(vib)   ...       0.12 
freq.     577.36  E(vib)   ...       0.11 
freq.     608.13  E(vib)   ...       0.10 
freq.     685.06  E(vib)   ...       0.07 
freq.     707.13  E(vib)   ...       0.07 
freq.     784.97  E(vib)   ...       0.05 
freq.     985.53  E(vib)   ...       0.02 
freq.    1010.91  E(vib)   ...       0.02 
freq.    1104.00  E(vib)   ...       0.02 
freq.    1187.52  E(vib)   ...       0.01 
freq.    1262.87  E(vib)   ...       0.01 
freq.    1383.80  E(vib)   ...       0.00 
freq.    1396.93  E(vib)   ...       0.00 
freq.    1433.30  E(vib)   ...       0.00 
freq.    1459.95  E(vib)   ...       0.00 
freq.    1614.46  E(vib)   ...       0.00 
freq.    1711.88  E(vib)   ...       0.00 
freq.    3023.23  E(vib)   ...       0.00 
freq.    3089.53  E(vib)   ...       0.00 
freq.    3154.92  E(vib)   ...       0.00 
freq.    3546.53  E(vib)   ...       0.00 
freq.    3571.79  E(vib)   ...       0.00 
freq.    3930.62  E(vib)   ...       0.00 

------------
INNER ENERGY
------------

The inner energy is: U= E(el) + E(ZPE) + E(vib) + E(rot) + E(trans)
    E(el)   - is the total energy from the electronic structure calculation
              = E(kin-el) + E(nuc-el) + E(el-el) + E(nuc-nuc)
    E(ZPE)  - the the zero temperature vibrational energy from the frequency calculation
    E(vib)  - the the finite temperature correction to E(ZPE) due to population
              of excited vibrational states
    E(rot)  - is the rotational thermal energy
    E(trans)- is the translational thermal energy

Summary of contributions to the inner energy U:
Electronic energy                ...   -418.65461887 Eh
Zero point energy                ...      0.09316332 Eh      58.46 kcal/mol
Thermal vibrational correction   ...      0.00575766 Eh       3.61 kcal/mol
Thermal rotational correction    ...      0.00141627 Eh       0.89 kcal/mol
Thermal translational correction ...      0.00141627 Eh       0.89 kcal/mol
-----------------------------------------------------------------------
Total thermal energy                   -418.55286534 Eh


Summary of corrections to the electronic energy:
(perhaps to be used in another calculation)
Total thermal correction                  0.00859021 Eh       5.39 kcal/mol
Non-thermal (ZPE) correction              0.09316332 Eh      58.46 kcal/mol
-----------------------------------------------------------------------
Total correction                          0.10175353 Eh      63.85 kcal/mol


--------
ENTHALPY
--------

The enthalpy is H = U + kB*T
                kB is Boltzmann's constant
Total thermal energy              ...   -418.55286534 Eh 
Thermal Enthalpy correction       ...      0.00094421 Eh       0.59 kcal/mol
-----------------------------------------------------------------------
Total Enthalpy                    ...   -418.55192113 Eh


Note: Only C1 symmetry has been detected, increase convergence thresholds 
      if your molecule has a higher symmetry. Symmetry factor of 1.0 is   
      used for the rotational entropy correction. 
 

Note: Rotational entropy computed according to Herzberg 
Infrared and Raman Spectra, Chapter V,1, Van Nostrand Reinhold, 1945 
Point Group:  C1, Symmetry Number:   1  
Rotational constants in cm-1:     0.175530     0.044258     0.035582 

Vibrational entropy computed according to the QRRHO of S. Grimme
Chem.Eur.J. 2012 18 9955 using a reference frequency of 100.0 cm-1


-------
ENTROPY
-------

The entropy contributions are T*S = T*(S(el)+S(vib)+S(rot)+S(trans))
     S(el)   - electronic entropy
     S(vib)  - vibrational entropy
     S(rot)  - rotational entropy
     S(trans)- translational entropy
The entropies will be listed as multiplied by the temperature to get
units of energy

Electronic entropy                ...      0.00103729 Eh      0.65 kcal/mol
Vibrational entropy               ...      0.01005778 Eh      6.31 kcal/mol
Rotational entropy                ...      0.01337891 Eh      8.40 kcal/mol
Translational entropy             ...      0.01895480 Eh     11.89 kcal/mol
-----------------------------------------------------------------------
Final entropy term                ...      0.04342877 Eh     27.25 kcal/mol

In case the symmetry of your molecule has not been determined correctly
or in case you have a reason to use a different symmetry number we print 
out the resulting rotational entropy values for sn=1,12:

 non-linear molecules -----------------------------------
|  sn= 1 | S(rot)=       0.01337891 Eh      8.40 kcal/mol|
|  sn= 2 | S(rot)=       0.01272445 Eh      7.98 kcal/mol|
|  sn= 3 | S(rot)=       0.01234162 Eh      7.74 kcal/mol|
|  sn= 4 | S(rot)=       0.01207000 Eh      7.57 kcal/mol|
|  sn= 5 | S(rot)=       0.01185931 Eh      7.44 kcal/mol|
|  sn= 6 | S(rot)=       0.01168717 Eh      7.33 kcal/mol|
|  sn= 7 | S(rot)=       0.01154162 Eh      7.24 kcal/mol|
|  sn= 8 | S(rot)=       0.01141554 Eh      7.16 kcal/mol|
|  sn= 9 | S(rot)=       0.01130433 Eh      7.09 kcal/mol|
|  sn=10 | S(rot)=       0.01120485 Eh      7.03 kcal/mol|
|  sn=11 | S(rot)=       0.01111486 Eh      6.97 kcal/mol|
|  sn=12 | S(rot)=       0.01103271 Eh      6.92 kcal/mol|
 linear molecules ---------------------------------------
|  Dinfh | S(rot)=       0.00847550 Eh      5.32 kcal/mol|
|  Cinfv | S(rot)=       0.00912996 Eh      5.73 kcal/mol|
 --------------------------------------------------------


-------------------
GIBBS FREE ENERGY
-------------------

The Gibbs free energy is G = H - T*S

Total enthalpy                    ...   -418.55192113 Eh 
Total entropy correction          ...     -0.04342877 Eh    -27.25 kcal/mol
-----------------------------------------------------------------------
Final Gibbs free energy         ...   -418.59534990 Eh

For completeness - the Gibbs free energy minus the electronic energy
G-E(el)                           ...      0.05926897 Eh     37.19 kcal/mol


Maximum memory used throughout the entire PROP-calculation: 38.7 MB

--------------------------------
SUGGESTED CITATIONS FOR THIS RUN
--------------------------------

Below you find a list of papers that are relevant to this ORCA run
We neither can nor want to force you to cite these papers, but we appreciate if you do
You receive ORCA, which is the product of decades of hard work by many enthusiastic individuals, for free
The only thing we kindly ask in return is that you cite our papers,
We deeply appreciate it, if you show your appreciation for ORCA by not just citing the generic ORCA reference.

Please note that relegating all ORCA citations to the supporting information does *not* help us.
SI sections are not indexed - citations you put there will not count into any citation statistics
But we need these citations in order to attract the funding resources that allow us to do what we are doing

Therefore, if you are a happy ORCA user, please consider citing a few of the papers listed below in the main body of your paper

In addition to the list printed below, the program has created the file t1_freq_1_wat.bibtex that contains the list in bibtex format
You can import this file easily into all common literature databanks and citation aid programs


List of essential papers. We consider these as the minimum necessary citations

  1. Neese, F.
     Software update: the ORCA program system, version 6.0
     WIRES Comput. Molec. Sci. 2025 15(1), e70019
     doi.org/10.1002/wcms.7019

List of papers to cite with high priority. The work reported in these papers was absolutely
necessary for this run to complete.
Our perspective: the developers of density functionals and basis sets usually get cited in chemistry papers
Good! But without the algorithms to do something with them, the functionals or basis sets would not do anything.
Hence, in our opinion, the algorithm design and method developments papers are equally worthy of getting cited

  1. Bykov, D.; Petrenko, T.; Izsak, R.; Kossmann, S.; Becker, U.; Valeev, E.; Neese, F.
     Efficient implementation of the analytic second derivatives of Hartree-Fock and hybrid DFT energies: a detailed analysis of different approximations
     Molec. Phys. 2015 113 , 1961-1977
     doi.org/10.1080/00268976.2015.1025114
  2. Lehtola, S.; Steigemann, C.; Oliveira, M.; Marques, M.
     Recent developments in Libxc - A comprehensive library of functionals for density functional theory
     Software X 2018 7 , 
     doi.org/10.1016/j.softx.2017.11.002
  3. Neese, F.
     The SHARK Integral Generation and Digestion System
     J. Comp. Chem. 2022 44(3), 381
     doi.org/10.1002/jcc.26942

List of suggested additional citations. These are papers that are important in the 'surrounding' of 
of this run, or papers that preceded the highly important papers. If you like your results we are grateful for a citation.

  1. Neese, F.
     The ORCA program system
     WIRES Comput. Molec. Sci. 2012 2(1), 73-78
     doi.org/10.1002/wcms.81
  2. Neese, F.
     Software update: the ORCA program system, version 4.0
     WIRES Comput. Molec. Sci. 2018 8(1), 1-6
     doi.org/10.1002/wcms.1327
  3. Neese, F.; Wennmohs, F.; Becker, U.; Riplinger, C.
     The ORCA quantum chemistry program package
     J. Chem. Phys. 2020 152(22), 224108
     doi.org/10.1063/5.0004608
  4. Neese, F.
     Software update: The ORCA program system—Version 5.0
     WIRES Comput. Molec. Sci. 2022 12(1), e1606
     doi.org/10.1002/wcms.1606

List of optional additional citations

  1. Neese, F.
     Approximate second-order SCF convergence for spin unrestricted wavefunctions
     Chem. Phys. Lett. 2000 325(1-3), 93-98
     doi.org/10.1016/s0009-2614(00)00662-x

Timings for individual modules:

Sum of individual times          ...     3974.101 sec (=  66.235 min)
Startup calculation              ...        8.439 sec (=   0.141 min)   0.2 %
SCF iterations                   ...      109.974 sec (=   1.833 min)   2.8 %
Property integrals               ...      279.023 sec (=   4.650 min)   7.0 %
SCF Response                     ...     3365.087 sec (=  56.085 min)  84.7 %
Property calculations            ...      188.403 sec (=   3.140 min)   4.7 %
SCF Gradient evaluation          ...       23.175 sec (=   0.386 min)   0.6 %
                             ****ORCA TERMINATED NORMALLY****
TOTAL RUN TIME: 0 days 1 hours 6 minutes 16 seconds 214 msec
