
                                 *****************
                                 * O   R   C   A *
                                 *****************

                                            #,                                       
                                            ###                                      
                                            ####                                     
                                            #####                                    
                                            ######                                   
                                           ########,                                 
                                     ,,################,,,,,                         
                               ,,#################################,,                 
                          ,,##########################################,,             
                       ,#########################################, ''#####,          
                    ,#############################################,,   '####,        
                  ,##################################################,,,,####,       
                ,###########''''           ''''###############################       
              ,#####''   ,,,,##########,,,,          '''####'''          '####       
            ,##' ,,,,###########################,,,                        '##       
           ' ,,###''''                  '''############,,,                           
         ,,##''                                '''############,,,,        ,,,,,,###''
      ,#''                                            '''#######################'''  
     '                                                          ''''####''''         
             ,#######,   #######,   ,#######,      ##                                
            ,#'     '#,  ##    ##  ,#'     '#,    #''#        ,####,    ,#,          
            ##       ##  ##   ,#'  ##            #'  '#       #'       ,# #          
            ##       ##  #######   ##           ,######,      #####,      #          
            '#,     ,#'  ##    ##  '#,     ,#' ,#      #,     #,   #      #          
             '#######'   ##     ##  '#######'  #'      '#     '####' #    #          



                #########################################################
                #                        -***-                          #
                #          Department of theory and spectroscopy        #
                #                                                       #
                #                      Frank Neese                      #
                #                                                       #
                #     Directorship, Architecture, Infrastructure        #
                #                    SHARK, DRIVERS                     #
                #        Core code/Algorithms in most modules           #
                #                                                       #
                #        Max Planck Institute fuer Kohlenforschung      #
                #                Kaiser Wilhelm Platz 1                 #
                #                 D-45470 Muelheim/Ruhr                 #
                #                      Germany                          #
                #                                                       #
                #                  All rights reserved                  #
                #                        -***-                          #
                #########################################################


                         Program Version 6.1.0  -  RELEASE   -
                                (GIT: $679e74b$)
                          ($2025-06-10 18:02:51 +0200$)


 With contributions from (in alphabetic order):
[Max-Planck-Institut fuer Kohlenforschung]                               
  Daniel Aravena         : Magnetic Suceptibility                        
  Michael Atanasov       : Ab Initio Ligand Field Theory (pilot matlab implementation)
  Alexander A. Auer      : GIAO ZORA, VPT2 properties, NMR spectrum      
  Ute Becker             : All parallelization in ORCA, NUMFREQ, NUMCALC 
  Giovanni Bistoni       : ED, misc. LED, open-shell LED, HFLD           
  Dmytro Bykov           : pre 5.0 version of the SCF Hessian            
  Marcos Casanova-Páez   : Triplet and SCS-CIS(D). UHF-(DLPNO)-IP/EA/STEOM-CCSD. UHF-CVS-IP/STEOM-CCSD   
  Vijay G. Chilkuri      : MRCI spin determinant printing, contributions to CSF-ICE 
  Pauline Colinet        : FMM embedding                                 
  Dipayan Datta          : RHF DLPNO-CCSD density                        
  Achintya Kumar Dutta   : EOM-CC, STEOM-CC                              
  Nicolas Foglia         : Exact transition moments, OPA infrastructure, MCD improvements    
  Dmitry Ganyushin       : Spin-Orbit,Spin-Spin,Magnetic field MRCI      
  Miquel Garcia-Rates    : C-PCM and meta-GGA Hessian, CCSD/C-PCM, Gaussian charge scheme 
  Tiago L. C. Gouveia    : GS-ROHF, GS-ROCIS                             
  Yang Guo               : DLPNO-NEVPT2, F12-NEVPT2, CIM, IAO-localization        
  Andreas Hansen         : Spin unrestricted coupled pair/coupled cluster methods 
  Ingolf Harden          : AUTO-CI MPn and infrastructure                
  Benjamin Helmich-Paris : MC-RPA, TRAH-(SCF,CASSCF), AVAS, COSX integrals, SCF dyn. polar., MC-PDFT, srDFT 
  Lee Huntington         : MR-EOM, pCC                                   
  Robert Izsak           : Overlap fitted RIJCOSX, COSX-SCS-MP3, EOM     
  Riya Kayal             : Wick's Theorem for AUTO-CI, AUTO-CI UHF-CCSDT 
  Emily Kempfer          : AUTO-CI RHF CISDT and CCSDT, approximate NEVPT4
  Christian Kollmar      : KDIIS, OOCD, Brueckner-CCSD(T), CCSD density, CASPT2, CASPT2-K, improved NEVPT2 
  Axel Koslowski         : Symmetry handling                             
  Simone Kossmann        : meta-GGA functionals, TD-DFT gradient, OOMP2, (MP2 Hessian; deprecated post 5.0) 
  Lucas Lang             : DCDCAS, Hyperfine gauge corrections, ICE-SOC+SSC
  Marvin Lechner         : AUTO-CI (C++ implementation), FIC-MRCC        
  Spencer Leger          : CASSCF response                               
  Dagmar Lenk            : GEPOL surface, SMD, ORCA-2-JSON               
  Dimitrios Liakos       : Extrapolation schemes; Compound Job, Property file
  Dimitrios Manganas     : Further ROCIS development; embedding schemes. LFT, Crystal Embedding 
  Dimitrios Pantazis     : SARC Basis sets                               
  Anastasios Papadopoulos: AUTO-CI, single reference methods and gradients 
  Taras Petrenko         : pre 6.0 DFT Hessian and TD-DFT gradient,  ECA, NRVS 
  Petra Pikulova         : Analytic Raman intensities                    
  Peter Pinski           : DLPNO-MP2, DLPNO-MP2 Gradient                 
  Shashank Vittal Rao    : ES-AILFT, MagRelax                            
  Christoph Reimann      : Effective Core Potentials                     
  Marius Retegan         : Local ZFS, SOC                                
  Christoph Riplinger    : Optimizer, TS searches, QM/MM, DLPNO-CCSD(T), (RO)-DLPNO pert. Triples 
  Michael Roemelt        : Original ROCIS implementation, recursive CI coupling coefficients
  Masaaki Saitow         : Open-shell DLPNO-CCSD energy and density      
  Barbara Sandhoefer     : DKH picture change effects                    
  Yorick L. A. Schmerwitz: GMF and freeze-and-release deltaSCF, NEB S-IDPP initial path                    
  Kantharuban Sivalingam : CASSCF convergence/infrastructure, NEVPT2, NEVPT3, NEVPT4(SD), FIC-MRCI and CEPA variants
  Bernardo de Souza      : ESD, SOC TD-DFT                               
  Georgi L. Stoychev     : AutoAux, RI-MP2 NMR, DLPNO-MP2 response, X2C  
  Van Anh Tran           : RI-MP2 g-tensors                              
  Willem Van den Heuvel  : Paramagnetic NMR                              
  Zikuan Wang            : NOTCH, Electric field optimization            
  Frank Wennmohs         : Technical directorship and infrastructure     
  Hang Xu                : AUTO-CI-Response properties                   
                                                                         
[FACCTs GmbH]                                                            
  Markus Bursch, Nicolas Foglia, Miquel Garcia-Rates, Ingolf Harden, Hagen Neugebauer, Anastasios Papadopoulos, 
  Christoph Riplinger, Bernardo de Souza, Georgi L. Stoychev                                                    
                                                                 
  APM, various basis sets, CI-OPT, improved COSX, DLPNO-Multilevel,           
  DOCKER, DRACO, updates on ESD, Fragmentator, GOAT, IRC, LR-CPCM, L-BFGS, MBIS, meta-GGA TD-DFT gradient, ML-optimized integration grids, 
  MM, NACMEs, nearIR, NEB, NEB-TS, NL-DFT gradient (VV10), 2- and 3-layer-ONIOM, interface openCOSMO-RS, QMMM,   
  Crystal-QMMM, RESP, rigid body optimization, SF, symmetry and pop. for TD-DFT, various functionals, SOLVATOR                                   
                                                                         
[Other institutions]                                                     
  V. Asgeirsson          : NEB                                           
  Christoph Bannwarth    : sTDA-DFT, sTD-DFT, PBEh-3c, B97-3c, D3        
  Giovanni Bistoni       : ETS/NOCV, ADLD/ADEX, COVALED                  
  Martin Brehm           : Molecular dynamics                            
  Ronald Cardenas        : ETS/NOCV                                      
  Martina Colucci        : COVALED                                       
  Sebastian Ehlert       : rSCAN, r2SCAN, r2SCAN-3c, D4, dhf basis sets  
  Marvin Friede          : D4 for Fr, Ra, Ac-Lr                          
  Lars Goerigk           : TD-DFT with DH, B97 family of functionals     
  Stefan Grimme          : VdW corrections, initial TS optimization, DFT functionals, gCP, sTDA/sTD-DF 
  Waldemar Hujo          : DFT-NL                                        
  H. Jonsson             : NEB                                           
  Holger Kruse           : gCP                                           
  Marcel Mueller         : wB97X-3c, vDZP basis set                      
  Hagen Neugebauer       : wr2SCAN, Native XTB                           
  Gianluca Regni         : ADLD/ADEX                                     
  Tobias Risthaus        : pre 6.0 range-separated hybrid DFT and stability analysis
  Lukas Wittmann         : regularized MP2, r2SCAN double-hybrids, wr2SCAN        
                                                                         
We gratefully acknowledge several colleagues who have allowed us to      
interface, adapt or use parts of their codes:                            
  Ed Valeev, F. Pavosevic, A. Kumar             : LibInt (2-el integral package), F12 methods 
  Garnet Chan, S. Sharma, J. Yang, R. Olivares  : DMRG                   
  Ulf Ekstrom                                   : XCFun DFT Library      
  Mihaly Kallay                                 : mrcc  (arbitrary order and MRCC methods)
  Frank Weinhold                                : gennbo (NPA and NBO analysis)           
  Simon Mueller                                 : openCOSMO-RS                            
  Christopher J. Cramer and Donald G. Truhlar   : smd solvation model                     
  S Lehtola, MJT Oliveira, MAL Marques          : LibXC Library                           
  Liviu Ungur et al                             : ANISO software                          


 Your calculation uses the libint2 library for the computation of 2-el integrals
 For citations please refer to: http://libint.valeyev.net

 Your ORCA version has been built with support for libXC version: 7.0.0
 For citations please refer to: https://libxc.gitlab.io

 This ORCA versions uses:
   CBLAS   interface :  Fast vector & matrix operations
   LAPACKE interface :  Fast linear algebra routines
   SCALAPACK package :  Parallel linear algebra routines
   Shared memory     :  Shared parallel matrices
   BLAS/LAPACK       :  OpenBLAS 0.3.29  USE64BITINT DYNAMIC_ARCH NO_AFFINITY SkylakeX SINGLE_THREADED
        Core in use  :  SkylakeX
   Copyright (c) 2011-2014, The OpenBLAS Project


  ***********************************
  * Starting time: Wed Dec 17 17:55:17 2025
  * Host name:     bp1-compute127
  * Process ID:    3945976
  * Working dir.:  /user/work/kp22738/Diss/Orca/pyruvic_anion/binding_energies/1_wat/15078177_sp_s0_1_wat
  ***********************************

NOTE: MaxCore=2000 MB was set to SCF,MP2,MDCI,CIPSI,MRCI,RASCI and CIS
      => If you want to overwrite this, your respective input block should be placed after the MaxCore statement
Using LibXC functional ID 471 : wB97X-D range-separated functional
[ 1]  J.-D. Chai and M. Head-Gordon.,  Phys. Chem. Chem. Phys. 10, 6615-6620 (2008)
Using LibXC functional ID 471 : wB97X-D range-separated functional
[ 1]  J.-D. Chai and M. Head-Gordon.,  Phys. Chem. Chem. Phys. 10, 6615-6620 (2008)
Your calculation utilizes LibXC
by S. Lehtola, C. Steigemann, M. J. T. Oliveira & M. A. L. Marques
Please cite in your paper:
Lehtola, S.; Steigemann, C.; Oliveira, M.J.T.; Marques, M. A. L. Software X, 7, (2018), 1.
   

================================================================================

----- Orbital basis set information -----
Your calculation utilizes the basis: aug-cc-pVDZ 
    H, B-Ne : Obtained from the ccRepo (grant-hill.group.shef.ac.uk/ccrepo) Feb. 2017
              R. A. Kendall, T. H. Dunning, Jr., R. J. Harrison, J. Chem. Phys. 96, 6796 (1992)
         He : Obtained from the ccRepo (grant-hill.group.shef.ac.uk/ccrepo) Feb. 2017
              D. E. Woon, T. H. Dunning, Jr., J. Chem. Phys. 100, 2975 (1994)
  Li-Be, Na : Obtained from the ccRepo (grant-hill.group.shef.ac.uk/ccrepo) Feb. 2017
              B. P. Prascher, D. E. Woon, K. A. Peterson, T. H. Dunning, Jr., A. K. Wilson, Theor. Chem. Acc. 128, 69 (2011)
         Mg : Obtained from the Peterson Research Group Website (tyr0.chem.wsu.edu/~kipeters) Feb. 2017
              B. P. Prascher, D. E. Woon, K. A. Peterson, T. H. Dunning, Jr., A. K. Wilson, Theor. Chem. Acc. 128, 69 (2011)
      Al-Ar : Obtained from the ccRepo (grant-hill.group.shef.ac.uk/ccrepo) Feb. 2017
              D. E. Woon, T. H. Dunning, Jr., J. Chem. Phys. 98, 1358 (1993)
      Sc-Zn : Obtained from the ccRepo (grant-hill.group.shef.ac.uk/ccrepo) Feb. 2017
              N. B. Balabanov, K. A. Peterson, J. Chem. Phys. 123, 064107 (2005)
              N. B. Balabanov, K. A. Peterson, J. Chem. Phys. 125, 074110 (2006)
      Ga-Kr : Obtained from the ccRepo (grant-hill.group.shef.ac.uk/ccrepo) Feb. 2017
              A. K. Wilson, D. E. Woon, K. A. Peterson, T. H. Dunning, Jr., J. Chem. Phys. 110, 7667 (1999)

================================================================================
                                        WARNINGS
                       Please study these warnings very carefully!
================================================================================


================================================================================
                                       INPUT FILE
================================================================================
NAME = sp_s0_1_wat.inp
|  1> ! aug-cc-pVDZ LARGEPRINT DEFGRID3 TIGHTSCF
|  2> 
|  3> %PAL NPROCS 8 END
|  4> 
|  5> %maxcore 2000
|  6> 
|  7> %method
|  8> method dft
|  9> functional hyb_gga_xc_wb97x_d
| 10> end
| 11> 
| 12> %geom
| 13> maxiter 400
| 14> end
| 15> 
| 16> 
| 17> * xyz 0 1
| 18>   C          -0.65259943829938     -0.22261983575645      0.00002635823652
| 19>   C           0.70499410176540      0.24887950073459      0.00042856899824
| 20>   C          -1.79340708060650      0.75989929313947     -0.00019195313255
| 21>   H          -2.43143190953461      0.60673599720014      0.88608453690581
| 22>   H          -2.43105093693668      0.60677972927235     -0.88675105816225
| 23>   H          -1.41859559091354      1.79070942637949     -0.00008000763172
| 24>   O          -0.86207551732440     -1.49133034315518      0.00009988986796
| 25>   O           1.11877795426153      1.42759405816810      0.00070532346947
| 26>   O           1.60796580263599     -0.78503326488823      0.00043479807250
| 27>   H           1.00666372552870     -1.56126958772348     -0.00007864776785
| 28>   O           3.87941091814564      1.36312596640138      0.00327397680521
| 29>   H           3.88975396791148      0.40197700291592      0.00298993622791
| 30>   H           2.90979414909711      1.52885270347277      0.00218915847136
| 31> *
| 32> 
| 33>                          ****END OF INPUT****
================================================================================

                       ****************************
                       * Single Point Calculation *
                       ****************************

---------------------------------
CARTESIAN COORDINATES (ANGSTROEM)
---------------------------------
  C     -0.652599   -0.222620    0.000026
  C      0.704994    0.248880    0.000429
  C     -1.793407    0.759899   -0.000192
  H     -2.431432    0.606736    0.886085
  H     -2.431051    0.606780   -0.886751
  H     -1.418596    1.790709   -0.000080
  O     -0.862076   -1.491330    0.000100
  O      1.118778    1.427594    0.000705
  O      1.607966   -0.785033    0.000435
  H      1.006664   -1.561270   -0.000079
  O      3.879411    1.363126    0.003274
  H      3.889754    0.401977    0.002990
  H      2.909794    1.528853    0.002189

----------------------------
CARTESIAN COORDINATES (A.U.)
----------------------------
  NO LB      ZA    FRAG     MASS         X           Y           Z
   0 C     6.0000    0    12.011   -1.233234   -0.420691    0.000050
   1 C     6.0000    0    12.011    1.332246    0.470314    0.000810
   2 C     6.0000    0    12.011   -3.389048    1.436002   -0.000363
   3 H     1.0000    0     1.008   -4.594740    1.146565    1.674457
   4 H     1.0000    0     1.008   -4.594020    1.146648   -1.675717
   5 H     1.0000    0     1.008   -2.680757    3.383950   -0.000151
   6 O     8.0000    0    15.999   -1.629087   -2.818206    0.000189
   7 O     8.0000    0    15.999    2.114184    2.697762    0.001333
   8 O     8.0000    0    15.999    3.038615   -1.483498    0.000822
   9 H     1.0000    0     1.008    1.902319   -2.950372   -0.000149
  10 O     8.0000    0    15.999    7.331024    2.575935    0.006187
  11 H     1.0000    0     1.008    7.350570    0.759626    0.005650
  12 H     1.0000    0     1.008    5.498714    2.889113    0.004137

--------------------------------
INTERNAL COORDINATES (ANGSTROEM)
--------------------------------
 C      0   0   0     0.000000000000     0.00000000     0.00000000
 C      1   0   0     1.437140217971     0.00000000     0.00000000
 C      1   2   0     1.505584923893   120.11098547     0.00000000
 H      3   1   2     1.102733283413   110.34347444   239.02053076
 H      3   1   2     1.102734027345   110.34329011   120.98863054
 H      3   1   2     1.096837816693   110.75492818     0.00000000
 O      1   2   3     1.285887469678   118.52786846   180.01214121
 O      2   1   3     1.249233829627   128.49583862     0.00000000
 O      2   1   3     1.372710275160   111.98008058   180.00649633
 H      9   2   1     0.981889647796   101.10481484     0.00000000
 O      8   2   1     2.761386806320   108.00569419   179.95847754
 H     11   8   2     0.961204655298    91.95429196     0.00000000
 H     11   8   2     0.983678406305     8.36149624   179.93206908

---------------------------
INTERNAL COORDINATES (A.U.)
---------------------------
 C      0   0   0     0.000000000000     0.00000000     0.00000000
 C      1   0   0     2.715801428010     0.00000000     0.00000000
 C      1   2   0     2.845143177518   120.11098547     0.00000000
 H      3   1   2     2.083863904410   110.34347444   239.02053076
 H      3   1   2     2.083865310239   110.34329011   120.98863054
 H      3   1   2     2.072723086878   110.75492818     0.00000000
 O      1   2   3     2.429975156732   118.52786846   180.01214121
 O      2   1   3     2.360709815225   128.49583862     0.00000000
 O      2   1   3     2.594046481272   111.98008058   180.00649633
 H      9   2   1     1.855502528067   101.10481484     0.00000000
 O      8   2   1     5.218264813769   108.00569419   179.95847754
 H     11   8   2     1.816413557164    91.95429196     0.00000000
 H     11   8   2     1.858882791769     8.36149624   179.93206908

---------------------
BASIS SET INFORMATION
---------------------
There are 3 groups of distinct atoms

 Group   1 Type C   : 18s5p2d contracted to 4s3p2d pattern {8811/311/11}
 Group   2 Type H   : 5s2p contracted to 3s2p pattern {311/11}
 Group   3 Type O   : 18s5p2d contracted to 4s3p2d pattern {8811/311/11}

Atom   0C    basis set group =>   1
Atom   1C    basis set group =>   1
Atom   2C    basis set group =>   1
Atom   3H    basis set group =>   2
Atom   4H    basis set group =>   2
Atom   5H    basis set group =>   2
Atom   6O    basis set group =>   3
Atom   7O    basis set group =>   3
Atom   8O    basis set group =>   3
Atom   9H    basis set group =>   2
Atom  10O    basis set group =>   3
Atom  11H    basis set group =>   2
Atom  12H    basis set group =>   2

-------------------------
BASIS SET IN INPUT FORMAT
-------------------------

 # Basis set for element : H 
 NewGTO H 
 S 3 
   1      13.0100000000      0.0334987264
   2       1.9620000000      0.2348008012
   3       0.4446000000      0.8136829579
 S 1 
   1       0.1220000000      1.0000000000
 S 1 
   1       0.0297400000      1.0000000000
 P 1 
   1       0.7270000000      1.0000000000
 P 1 
   1       0.1410000000      1.0000000000
  end;

 # Basis set for element : C 
 NewGTO C 
 S 8 
   1    6665.0000000000      0.0006915840
   2    1000.0000000000      0.0053257962
   3     228.0000000000      0.0270607210
   4      64.7100000000      0.1016568461
   5      21.0600000000      0.2745748236
   6       7.4950000000      0.4482943189
   7       2.7970000000      0.2849026107
   8       0.5215000000      0.0151948592
 S 8 
   1    6665.0000000000     -0.0002932697
   2    1000.0000000000     -0.0023180355
   3     228.0000000000     -0.0114997860
   4      64.7100000000     -0.0468267270
   5      21.0600000000     -0.1284661688
   6       7.4950000000     -0.3012662725
   7       2.7970000000     -0.2556307023
   8       0.5215000000      1.0937933610
 S 1 
   1       0.1596000000      1.0000000000
 S 1 
   1       0.0469000000      1.0000000000
 P 3 
   1       9.4390000000      0.0569792516
   2       2.0020000000      0.3132072115
   3       0.5456000000      0.7603767417
 P 1 
   1       0.1517000000      1.0000000000
 P 1 
   1       0.0404100000      1.0000000000
 D 1 
   1       0.5500000000      1.0000000000
 D 1 
   1       0.1510000000      1.0000000000
  end;

 # Basis set for element : O 
 NewGTO O 
 S 8 
   1   11720.0000000000      0.0007096459
   2    1759.0000000000      0.0054672723
   3     400.8000000000      0.0278231186
   4     113.7000000000      0.1047477397
   5      37.0300000000      0.2829208464
   6      13.2700000000      0.4484952387
   7       5.0250000000      0.2708168852
   8       1.0130000000      0.0154502916
 S 8 
   1   11720.0000000000     -0.0003144434
   2    1759.0000000000     -0.0024821377
   3     400.8000000000     -0.0123163554
   4     113.7000000000     -0.0505389173
   5      37.0300000000     -0.1393849033
   6      13.2700000000     -0.3250774948
   7       5.0250000000     -0.2298483076
   8       1.0130000000      1.0953793468
 S 1 
   1       0.3023000000      1.0000000000
 S 1 
   1       0.0789600000      1.0000000000
 P 3 
   1      17.7000000000      0.0626791663
   2       3.8540000000      0.3335365659
   3       1.0460000000      0.7412396416
 P 1 
   1       0.2753000000      1.0000000000
 P 1 
   1       0.0685600000      1.0000000000
 D 1 
   1       1.1850000000      1.0000000000
 D 1 
   1       0.3320000000      1.0000000000
  end;



           ************************************************************
           *        Program running with 8 parallel MPI-processes     *
           *              working on a common directory               *
           ************************************************************
------------------------------------------------------------------------------
                             ORCA STARTUP CALCULATIONS
------------------------------------------------------------------------------
------------------------------------------------------------------------------
                   ___                                                        
                  /   \      - P O W E R E D   B Y -                         
                 /     \                                                     
                 |  |  |   _    _      __       _____    __    __             
                 |  |  |  | |  | |    /  \     |  _  \  |  |  /  |          
                  \  \/   | |  | |   /    \    | | | |  |  | /  /          
                 / \  \   | |__| |  /  /\  \   | |_| |  |  |/  /          
                |  |  |   |  __  | /  /__\  \  |    /   |      \           
                |  |  |   | |  | | |   __   |  |    \   |  |\   \          
                \     /   | |  | | |  |  |  |  | |\  \  |  | \   \       
                 \___/    |_|  |_| |__|  |__|  |_| \__\ |__|  \__/        
                                                                              
                      - O R C A' S   B I G   F R I E N D -                    
                                      &                                       
                       - I N T E G R A L  F E E D E R -                       
                                                                              
 v1 FN, 2020, v2 2021, v3 2022-2024                                           
------------------------------------------------------------------------------


----------------------
SHARK INTEGRAL PACKAGE
----------------------

Number of atoms                             ...     13
Number of basis functions                   ...    257
Number of shells                            ...    135
Maximum angular momentum                    ...      2
Integral batch strategy                     ... SHARK/LIBINT Hybrid
RI-J (if used) integral strategy            ... SPLIT-RIJ (Revised 2003 algorithm where possible)
Printlevel                                  ...      1
Contraction scheme used                     ... PARTIAL GENERAL contraction
Prescreening option                         ... SCHWARTZ
   Thresh                                   ... 2.500e-11
   Tcut                                     ... 2.500e-12
   Tpresel                                  ... 2.500e-12 
Coulomb Range Separation                    ... NOT USED
Exchange Range Separation                   ... Long Range
   Mu parameter                             ... 2.000e-01
   Scaling (regular/separated)              ... 2.220e-01 7.780e-01
Robust (split-)RI terms used:
  metric    (central integrals)             ... YES
  density   (r.h.s.  integrals)             ... YES
  potential (l.h.s.  integrals)             ... YES
Multipole approximations                    ... NOT USED
Finite Nucleus Model                        ... NOT USED
CABS basis                                  ... NOT available
Auxiliary Coulomb fitting basis             ... NOT available
Auxiliary J/K fitting basis                 ... NOT available
Auxiliary Correlation fitting basis         ... NOT available
Auxiliary 'external' fitting basis          ... NOT available

Checking pre-screening integrals            ... done (  0.0 sec) Dimension = 135
Save PGC pre-screening integrals            ... done (  0.0 sec) Dimension = 135
Calculate PGC overlap integrals             ... done (  0.0 sec) Dimension = 93
Calculating pre-screening integrals (ORCA)  ... done (  0.1 sec) Dimension = 93
Shell pair information
Shell pair cut-off parameter TPreSel        ...   2.5e-12
Total number of shell pairs                 ...      9180
Shell pairs after pre-screening             ...      7532
Total number of primitive shell pairs       ...     13080
Primitive shell pairs kept                  ...      9874
          la=0 lb=0:   2711 shell pairs
          la=1 lb=0:   2626 shell pairs
          la=1 lb=1:    548 shell pairs
          la=2 lb=0:   1094 shell pairs
          la=2 lb=1:    450 shell pairs
          la=2 lb=2:    103 shell pairs

Checking whether 4 symmetric matrices of dimension 257 fit in memory
:Max Core in MB      =   2000.00
 MB in use           =      9.47
 MB left             =   1990.53
 MB needed           =      1.01
 Data fit in memory  = YES
Calculating Nuclear repulsion               ... done (  0.0 sec) ENN=    301.781958469483 Eh

Diagonalization of the overlap matrix:
Smallest eigenvalue                        ... 1.943e-05
Time for diagonalization                   ...    0.008 sec
Threshold for overlap eigenvalues          ... 1.000e-07
Number of eigenvalues below threshold      ... 0
Time for construction of square roots      ...    0.007 sec
Total time needed                          ...    0.027 sec

-------------------
DFT GRID GENERATION
-------------------

General Integration Accuracy     IntAcc      ... 4.959
Radial Grid Type                 RadialGrid  ... OptM3 with GC (2021)
Angular Grid (max. ang.)         AngularGrid ... 6 (Lebedev-590)
Angular grid pruning method      GridPruning ... 4 (adaptive)
Weight generation scheme         WeightScheme... mBecke (2022)
Basis function cutoff            BFCut       ... 1.0000e-11
Integration weight cutoff        WCut        ... 1.0000e-14
Partially contracted basis set               ... off
Rotationally invariant grid construction     ... off
Angular grids for H and He will be reduced by one unit
Diffuse basis detected: some atoms will have their outermost
                        angular grid increased by 1.

Total number of grid points                  ...   162629
Total number of batches                      ...     2548
Average number of points per batch           ...       63
Average number of grid points per atom       ...    12510

---------------------
SHARK GRID GENERATION
---------------------

General Integration Accuracy     IntAcc      ... 4.959
Radial Grid Type                 RadialGrid  ... OptM3 with GC (2021)
Angular Grid (max. ang.)         AngularGrid ... 6 (Lebedev-590)
Angular grid pruning method      GridPruning ... 4 (adaptive)
Weight generation scheme         WeightScheme... mBecke (2022)
Basis function cutoff            BFCut       ... 1.0000e-11
Integration weight cutoff        WCut        ... 1.0000e-14
Partially contracted basis set               ... off
Rotationally invariant grid construction     ... off
Angular grids for H and He will be reduced by one unit
Diffuse basis detected: some atoms will have their outermost
                        angular grid increased by 1.
Steep s-basis detected: some atoms will have their radial
                        grid points doubled.

Total number of grid points                  ...   266736
Total number of batches                      ...     4176
Average number of points per batch           ...       63
Average number of grid points per atom       ...    20518
Grids setup in   8.4 sec
Initializing property integral containers    ... done (  0.0 sec)

SHARK setup successfully completed in   9.2 seconds

Maximum memory used throughout the entire STARTUP-calculation: 61.0 MB


           ************************************************************
           *        Program running with 8 parallel MPI-processes     *
           *              working on a common directory               *
           ************************************************************
-------------------------------------------------------------------------------
                                 ORCA GUESS
                   Start orbitals & Density for SCF / CASSCF
-------------------------------------------------------------------------------

------------
SCF SETTINGS
------------
Hamiltonian:
 Density Functional     Method          .... DFT(GTOs)
  Functional kind                       .... Exchange-Correlation
  Functional name                       .... wB97X-D range-separated functional
  Functional family                     .... Hybrid GGA
  Functional refs                              
    [ 0] J.-D. Chai and M. Head-Gordon.,  Phys. Chem. Chem. Phys. 10, 6615-6620 (2008), doi: 10.1039/B810189B
  Fraction of HF Exchange (short range) .... 0.2220
  Fraction of HF Exchange ( int64 range )  .... 1.0000
  Range separation parameter mu         .... 0.2000
  Functional external parameters        .... 18
    Parameter  0 _cx0       =  7.779640e-01 : u^0 coefficient for exchange
    Parameter  1 _cx1       =  6.611600e-01 : u^1 coefficient for exchange
    Parameter  2 _cx2       =  5.745410e-01 : u^2 coefficient for exchange
    Parameter  3 _cx3       = -5.256710e+00 : u^3 coefficient for exchange
    Parameter  4 _cx4       =  1.163860e+01 : u^4 coefficient for exchange
    Parameter  5 _css0      =  1.000000e+00 : u^0 coefficient for same-spin correlation
    Parameter  6 _css1      = -6.905390e+00 : u^1 coefficient for same-spin correlation
    Parameter  7 _css2      =  3.133430e+01 : u^2 coefficient for same-spin correlation
    Parameter  8 _css3      = -5.105330e+01 : u^3 coefficient for same-spin correlation
    Parameter  9 _css4      =  2.644230e+01 : u^4 coefficient for same-spin correlation
    Parameter 10 _cos0      =  1.000000e+00 : u^0 coefficient for opposite-spin correlation
    Parameter 11 _cos1      =  1.794130e+00 : u^1 coefficient for opposite-spin correlation
    Parameter 12 _cos2      = -1.204770e+01 : u^2 coefficient for opposite-spin correlation
    Parameter 13 _cos3      =  1.408470e+01 : u^3 coefficient for opposite-spin correlation
    Parameter 14 _cos4      = -8.508090e+00 : u^4 coefficient for opposite-spin correlation
    Parameter 15 _alpha     =  1.000000e+00 : fraction of HF exchange
    Parameter 16 _beta      = -7.779640e-01 : fraction of short-range exchange
    Parameter 17 _omega     =  2.000000e-01 : range-separation constant
 Long-range corrected/Screened/Range-Separated Hybrid DFT is turned on
   Amount of maximum screened exact exchange              ....  0.777964
   Range separation parameter mu (erf(mu*r12)/r12)        ....  0.200000


General Settings:
 Integral files         IntName         .... sp_s0_1_wat
 Hartree-Fock type      HFTyp           .... RHF
 Total Charge           Charge          ....    0
 Multiplicity           Mult            ....    1
 Number of Electrons    NEL             ....   56
 Basis Dimension        Dim             ....  215
 Nuclear Repulsion      ENuc            ....    301.7819584695 Eh

Convergence Acceleration:
 AO-DIIS                CNVDIIS         .... on
   Start iteration      DIISMaxIt       ....    12
   Startup error        DIISStart       ....  0.200000
   # of expansion vecs  DIISMaxEq       ....     5
   Bias factor          DIISBfac        ....   1.050
   Max. coefficient     DIISMaxC        ....  10.000
 MO-DIIS                CNVKDIIS        .... off
 Trust-Rad. Augm. Hess. CNVTRAH         .... auto
   Auto Start mean grad. ratio tolernc. ....  1.125000
   Auto Start start iteration           ....    50
   Auto Start num. interpolation iter.  ....    10
   Max. Number of Micro iterations      ....    24
   Max. Number of Macro iterations      .... Maxiter - #DIIS iter
   Number of Davidson start vectors     ....     2
   Converg. threshold    (grad. norm)   ....   1.000e-05
   Grad. Scal. Fac. for Micro threshold ....   0.100
   Minimum threshold for Micro iter.    ....   1.000e-02
   NR start threshold (gradient norm)   ....   1.000e-04
   Initial trust radius                 ....   0.400
   Minimum AH scaling param. (alpha)    ....   1.000
   Maximum AH scaling param. (alpha)    .... 1000.000
   Quad. conv. algorithm                .... NR
   White noise on init. David. guess    .... on
   Maximum white noise                  ....   0.010
   Pseudo random numbers                .... off
   Inactive MOs                         .... canonical
   Orbital update algorithm             .... Taylor
   Preconditioner                       .... Diag
   Full preconditioner red. dimension   ....   250
 SOSCF                 CNVSOSCF           .... on
   Start iteration     SOSCFMaxIt         ....   150
   Startup grad/error  SOSCFStart         ....  0.003300
   Hessian update      SOSCFHessUp        .... L-BFGS
   Autom. constraints  SOSCFAutoConstrain .... off
 Level Shifting         CNVShift        .... on
   Level shift para.    LevelShift      ....    0.2500
   Turn off err/grad.   ShiftErr        ....    0.0010
 Zerner damping         CNVZerner       .... off
 Static damping         CNVDamp         .... on
   Fraction old density DampFac         ....    0.7000
   Max. Damping (<1)    DampMax         ....    0.9800
   Min. Damping (>=0)   DampMin         ....    0.0000
   Turn off err/grad.   DampErr         ....    0.1000

SCF Procedure:
 Maximum # iterations   MaxIter         ....   125
 SCF integral mode      SCFMode         .... Direct
   Integral package                     .... SHARK and LIBINT hybrid scheme
 Reset frequency        DirectResetFreq ....    20
 Integral Threshold     Thresh          ....  2.500e-11 Eh
 Primitive CutOff       TCut            ....  2.500e-12 Eh

Convergence Tolerance:
 Convergence Check Mode ConvCheckMode   .... Total+1el-Energy
 Convergence forced     ConvForced      .... 0
 Energy Change          TolE            ....  1.000e-08 Eh
 1-El. energy change                    ....  1.000e-05 Eh
 Orbital Gradient       TolG            ....  1.000e-05
 Orbital Rotation angle TolX            ....  1.000e-05
 DIIS Error             TolErr          ....  5.000e-07

------------------------------
INITIAL GUESS: MODEL POTENTIAL
------------------------------
Loading Hartree-Fock densities                     ... done
Calculating cut-offs                               ... done
Initializing the effective Hamiltonian             ... done
Setting up the integral package (SHARK)            ... done
Starting the Coulomb interaction                   ... done (   0.2 sec)
Making the grid                                    ... done (   0.2 sec)
Mapping shells                                     ... done
Starting the XC term evaluation                    ... done (   0.1 sec)
  promolecular density results
     # of electrons  =     55.996550612
     EX+EC           =    -36.067582857
Transforming the Hamiltonian                       ... done (   0.0 sec)
Diagonalizing the Hamiltonian                      ... done (   0.0 sec)
Back transforming the eigenvectors                 ... done (   0.0 sec)
Now organizing SCF variables                       ... done
                      ------------------
                      INITIAL GUESS DONE (   0.5 sec)
                      ------------------
----------------------
INITIAL GUESS ORBITALS
----------------------
                      0         1         2         3         4         5   
                 -18.22680 -18.21960 -18.20449 -18.19656  -9.51561  -9.49248
                   2.00000   2.00000   2.00000   2.00000   2.00000   2.00000
                  --------  --------  --------  --------  --------  --------
  0C   1s         0.000059 -0.000077 -0.000342 -0.000247 -0.002334 -1.013910
  0C   2s         0.000118 -0.000043 -0.000507 -0.000485 -0.002821 -0.037783
  0C   3s        -0.000014 -0.016818 -0.017965  0.020758  0.031229 -0.055258
  0C   4s        -0.025904  0.045589  0.009723  0.071979  0.027763  0.025612
  0C   1pz       -0.000000  0.000000  0.000000  0.000000  0.000000 -0.000001
  0C   1px        0.000075  0.000518  0.000311 -0.000089 -0.000117 -0.000674
  0C   1py       -0.000005  0.000004  0.000063 -0.001299 -0.000335  0.002077
  0C   2pz       -0.000001 -0.000004 -0.000009 -0.000004 -0.000003 -0.000021
  0C   2px       -0.004972 -0.014261 -0.025692 -0.012020 -0.014935 -0.095170
  0C   2py       -0.004779 -0.003509 -0.012949 -0.026466  0.010467  0.021178
  0C   3pz        0.000003  0.000002  0.000003  0.000002  0.000004 -0.000001
  0C   3px       -0.002794  0.013160  0.019794  0.005756  0.023313 -0.006602
  0C   3py       -0.000977  0.001022 -0.007200  0.007753 -0.006101  0.009678
  0C   1dz2      -0.000026 -0.000151 -0.000285 -0.000371 -0.001871  0.005114
  0C   1dxz      -0.000000  0.000000  0.000000  0.000001  0.000001 -0.000002
  0C   1dyz      -0.000000  0.000000  0.000000  0.000000 -0.000001  0.000000
  0C   1dx2y2    -0.000108  0.000330 -0.000338  0.001043  0.000178  0.000367
  0C   1dxy      -0.000048  0.000273  0.000678 -0.000409 -0.002787 -0.000860
  0C   2dz2      -0.000646 -0.002232 -0.003193 -0.006509 -0.003233 -0.006590
  0C   2dxz       0.000002  0.000000  0.000000 -0.000007  0.000002 -0.000000
  0C   2dyz      -0.000001 -0.000000 -0.000002 -0.000003 -0.000002 -0.000004
  0C   2dx2y2     0.002985 -0.004259 -0.000610 -0.028653  0.003906 -0.012931
  0C   2dxy      -0.005755 -0.003116 -0.009996  0.005726 -0.012157 -0.031899
  1C   1s         0.000397  0.000006 -0.000185  0.000458  0.001044 -0.020455
  1C   2s         0.000672 -0.000126 -0.000157  0.000660  0.001603 -0.003300
  1C   3s         0.003795 -0.008153 -0.008369  0.016838 -0.006684  0.112382
  1C   4s         0.018234 -0.059338 -0.047123 -0.045188 -0.057394 -0.016950
  1C   1pz        0.000000 -0.000000 -0.000000 -0.000000 -0.000000 -0.000000
  1C   1px        0.000107 -0.001060 -0.000574  0.000284 -0.000418 -0.000748
  1C   1py        0.000126  0.000725 -0.000849  0.000071 -0.000190  0.000046
  1C   2pz       -0.000003 -0.000005 -0.000011  0.000000 -0.000002 -0.000023
  1C   2px       -0.006655 -0.026895 -0.034375 -0.007797 -0.002244 -0.066581
  1C   2py        0.003433  0.008942 -0.021403 -0.015065  0.002542 -0.024871
  1C   3pz       -0.000005  0.000006  0.000002  0.000005  0.000005  0.000001
  1C   3px       -0.007702  0.010247  0.007230  0.011520  0.011099  0.002245
  1C   3py       -0.001020  0.007934  0.000204  0.000216  0.009050  0.000262
  1C   1dz2       0.000159  0.000804  0.000340  0.000389  0.000588 -0.003348
  1C   1dxz      -0.000000 -0.000000 -0.000000 -0.000000 -0.000000  0.000002
  1C   1dyz       0.000000 -0.000000  0.000000  0.000000 -0.000000  0.000001
  1C   1dx2y2    -0.000111  0.000206 -0.000659 -0.000188  0.000685  0.003218
  1C   1dxy       0.000012 -0.000259  0.001211 -0.000708 -0.000624  0.002651
  1C   2dz2       0.000369  0.004641  0.007070  0.003645  0.003081 -0.005637
  1C   2dxz       0.000001  0.000002  0.000002 -0.000004 -0.000001  0.000015
  1C   2dyz      -0.000001  0.000002 -0.000007  0.000002 -0.000001  0.000008
  1C   2dx2y2     0.003755  0.003394  0.023843  0.000251  0.001275  0.019142
  1C   2dxy      -0.004200  0.015238 -0.005823  0.002039  0.000225  0.022744
  2C   1s         0.000058 -0.000035  0.000250  0.000413 -1.014814  0.000606
  2C   2s         0.000101 -0.000083  0.000404  0.000622 -0.039113  0.000567
  2C   3s        -0.005462 -0.008994 -0.014070  0.003009  0.041744 -0.058585
  2C   4s         0.001897  0.001464  0.027506 -0.014060  0.041195 -0.016967
  2C   1pz       -0.000000 -0.000000 -0.000000  0.000000  0.000000  0.000000
  2C   1px       -0.000008 -0.000163 -0.000083 -0.000119  0.000514  0.000707
  2C   1py        0.000022  0.000032 -0.000088  0.000290 -0.000564 -0.000601
  2C   2pz        0.000000 -0.000000 -0.000002  0.000002 -0.000004 -0.000009
  2C   2px       -0.000924 -0.002607 -0.008499 -0.006333 -0.019191 -0.030472
  2C   2py        0.005301 -0.000632  0.007985 -0.005297  0.017118  0.018688
  2C   3pz       -0.000000 -0.000000  0.000001  0.000001  0.000000 -0.000002
  2C   3px        0.000220  0.000199  0.003412 -0.004217  0.001764 -0.003665
  2C   3py       -0.000041 -0.000449 -0.005708  0.000323 -0.003602  0.002632
  2C   1dz2       0.000034  0.000002  0.000081  0.000318 -0.000186 -0.002056
  2C   1dxz      -0.000000 -0.000000 -0.000000 -0.000000  0.000000  0.000001
  2C   1dyz       0.000000  0.000000 -0.000000  0.000000 -0.000000 -0.000001
  2C   1dx2y2     0.000084  0.000092 -0.000050  0.000159  0.000021  0.000266
  2C   1dxy       0.000099 -0.000017 -0.000100  0.000496 -0.000613 -0.002971
  2C   2dz2       0.000132 -0.000971 -0.000085  0.003166  0.000339  0.001251
  2C   2dxz      -0.000000  0.000002  0.000001 -0.000000 -0.000000 -0.000001
  2C   2dyz      -0.000001 -0.000001  0.000000  0.000001  0.000001  0.000002
  2C   2dx2y2     0.000378  0.001108  0.001749 -0.004488  0.000951 -0.002186
  2C   2dxy       0.000752 -0.000615  0.001885 -0.002200  0.006305  0.007087
  3H   1s        -0.000033  0.000206  0.000243 -0.000282  0.003115  0.001506
  3H   2s         0.001022 -0.000998 -0.004483  0.001809 -0.026575 -0.010311
  3H   3s        -0.000112  0.001574  0.000660 -0.001146 -0.000442 -0.001067
  3H   1pz       -0.000032  0.000023  0.000019 -0.000013 -0.003196 -0.000293
  3H   1px       -0.000044  0.000087  0.000089  0.000063  0.002460  0.000365
  3H   1py        0.000004  0.000002 -0.000028 -0.000206  0.000585  0.000213
  3H   2pz       -0.000123  0.000656  0.001440 -0.001740  0.007535  0.002757
  3H   2px        0.000373  0.000289  0.000399  0.000376 -0.004624 -0.002622
  3H   2py       -0.000221 -0.000441 -0.000451 -0.000819 -0.000321  0.001328
  4H   1s        -0.000033  0.000206  0.000243 -0.000282  0.003115  0.001506
  4H   2s         0.001025 -0.000999 -0.004485  0.001812 -0.026575 -0.010320
  4H   3s        -0.000110  0.001574  0.000660 -0.001143 -0.000443 -0.001069
  4H   1pz        0.000032 -0.000023 -0.000018  0.000013  0.003197  0.000293
  4H   1px       -0.000044  0.000087  0.000089  0.000063  0.002458  0.000365
  4H   1py        0.000004  0.000002 -0.000028 -0.000206  0.000585  0.000213
  4H   2pz        0.000123 -0.000656 -0.001440  0.001741 -0.007537 -0.002760
  4H   2px        0.000374  0.000290  0.000399  0.000378 -0.004621 -0.002623
  4H   2py       -0.000222 -0.000442 -0.000451 -0.000819 -0.000320  0.001328
  5H   1s        -0.000001 -0.000108 -0.000071  0.000701  0.002471  0.000563
  5H   2s        -0.004372  0.007348 -0.000841 -0.004877 -0.023203 -0.004650
  5H   3s        -0.000405 -0.000918  0.004205  0.001765 -0.001361 -0.001589
  5H   1pz       -0.000000 -0.000000  0.000000 -0.000000 -0.000000  0.000000
  5H   1px        0.000015 -0.000125  0.000046 -0.000040 -0.001392 -0.000128
  5H   1py       -0.000003 -0.000056 -0.000144  0.000151 -0.003996 -0.000275
  5H   2pz        0.000001  0.000000 -0.000000 -0.000001  0.000001 -0.000000
  5H   2px       -0.000051  0.000962  0.000400  0.001362  0.001272 -0.000371
  5H   2py        0.001060 -0.002692 -0.000142  0.002503  0.006382  0.000527
  6O   1s         0.000030  0.000563  0.001354  1.010190  0.000279 -0.001613
  6O   2s         0.000036  0.000358  0.000471  0.024914  0.000532 -0.002700
  6O   3s        -0.000050 -0.003362 -0.004220 -0.053182  0.000255  0.012388
  6O   4s         0.005384 -0.011266 -0.004341 -0.035141 -0.001323  0.011941
  6O   1pz       -0.000000 -0.000000 -0.000000 -0.000000 -0.000000 -0.000000
  6O   1px       -0.000004 -0.000072 -0.000076  0.000332  0.000081  0.000238
  6O   1py        0.000012  0.000025 -0.000114  0.001654  0.000332  0.000852
  6O   2pz        0.000000  0.000001  0.000001  0.000001 -0.000000 -0.000000
  6O   2px       -0.000418 -0.000140  0.000126 -0.002585 -0.002631 -0.000005
  6O   2py       -0.000358 -0.000589 -0.001007 -0.012318 -0.002301  0.013579
  6O   3pz       -0.000001  0.000001  0.000001 -0.000000 -0.000000  0.000000
  6O   3px       -0.000672 -0.003511 -0.001224 -0.002423 -0.002590  0.000054
  6O   3py        0.001588 -0.001622  0.000517 -0.009777  0.001647  0.002683
  6O   1dz2       0.000009 -0.000003  0.000020  0.000214 -0.000197 -0.000984
  6O   1dxz       0.000000 -0.000000 -0.000000 -0.000000  0.000000  0.000000
  6O   1dyz      -0.000000 -0.000000 -0.000000  0.000000 -0.000000 -0.000000
  6O   1dx2y2    -0.000017 -0.000012  0.000099 -0.000192 -0.000145 -0.001550
  6O   1dxy       0.000013 -0.000024 -0.000054  0.000066 -0.000181  0.000458
  6O   2dz2       0.000046 -0.000092  0.000047 -0.000599  0.001518 -0.002062
  6O   2dxz      -0.000000  0.000000  0.000000  0.000001 -0.000000 -0.000000
  6O   2dyz       0.000000  0.000000  0.000001 -0.000000  0.000000 -0.000000
  6O   2dx2y2     0.000222  0.000133  0.000073  0.001212  0.000407 -0.003601
  6O   2dxy      -0.000175  0.000454  0.000719 -0.000511 -0.000858  0.001300
  7O   1s        -0.000008 -0.000559 -1.010245  0.000822 -0.000328  0.000440
  7O   2s         0.000097 -0.000539 -0.025046 -0.000451 -0.000556  0.000789
  7O   3s         0.000429  0.002244  0.051997  0.005030  0.004106 -0.001985
  7O   4s        -0.006009  0.002419  0.034994  0.005803  0.006072  0.011232
  7O   1pz       -0.000000  0.000000  0.000000  0.000000 -0.000000  0.000000
  7O   1px       -0.000097  0.000146  0.000554 -0.000074  0.000025  0.000045
  7O   1py        0.000008 -0.000229  0.001645 -0.000074 -0.000162 -0.000351
  7O   2pz       -0.000001 -0.000001 -0.000002 -0.000002 -0.000001 -0.000001
  7O   2px       -0.000192 -0.001966 -0.004198  0.000085 -0.001714 -0.003407
  7O   2py       -0.000234 -0.001799 -0.010631 -0.001312 -0.001823  0.007031
  7O   3pz       -0.000002 -0.000000 -0.000000 -0.000002 -0.000001 -0.000002
  7O   3px       -0.002826 -0.000390 -0.001465 -0.001564 -0.002870 -0.004047
  7O   3py        0.000286  0.000589 -0.007401 -0.000187 -0.002248 -0.002684
  7O   1dz2       0.000036  0.000024 -0.000066 -0.000063 -0.000109 -0.000124
  7O   1dxz      -0.000000 -0.000000  0.000000  0.000000  0.000000  0.000000
  7O   1dyz       0.000000  0.000000 -0.000000  0.000000  0.000000  0.000000
  7O   1dx2y2    -0.000154 -0.000242  0.000092 -0.000015 -0.000030  0.000135
  7O   1dxy       0.000124  0.000004 -0.000139  0.000084  0.000114  0.000375
  7O   2dz2       0.000174 -0.001033 -0.000032  0.000159 -0.000259  0.001878
  7O   2dxz       0.000001  0.000000  0.000000 -0.000000 -0.000000  0.000000
  7O   2dyz      -0.000000  0.000000  0.000000  0.000000 -0.000000 -0.000000
  7O   2dx2y2     0.000402 -0.000134 -0.000343 -0.000446 -0.000221  0.002460
  7O   2dxy      -0.000863 -0.000111  0.000921 -0.000721  0.000021 -0.000281
  8O   1s        -0.000068 -1.009789 -0.000186  0.000247 -0.000239  0.000162
  8O   2s        -0.000074 -0.024252 -0.000710 -0.000209 -0.000415  0.000348
  8O   3s         0.000485  0.044736  0.003902  0.001498  0.003631  0.006064
  8O   4s         0.001450  0.036725 -0.013993  0.006240  0.008082  0.022357
  8O   1pz        0.000000  0.000001 -0.000000 -0.000000 -0.000000 -0.000000
  8O   1px        0.000030  0.001430  0.000047 -0.000076 -0.000117 -0.000450
  8O   1py        0.000010 -0.000223  0.000029 -0.000034 -0.000018  0.000308
  8O   2pz       -0.000001 -0.000001  0.000000  0.000001 -0.000000 -0.000000
  8O   2px       -0.001104 -0.007755 -0.003456  0.000542 -0.000467  0.001954
  8O   2py       -0.000500  0.007699  0.003182 -0.000061  0.000551 -0.003043
  8O   3pz       -0.000003 -0.000002  0.000002 -0.000001 -0.000000 -0.000001
  8O   3px       -0.003621 -0.007713  0.004508 -0.002773 -0.000659 -0.006558
  8O   3py       -0.000791  0.002835 -0.000482 -0.000652  0.000981  0.003029
  8O   1dz2      -0.000014  0.000107 -0.000133  0.000064 -0.000068 -0.000397
  8O   1dxz      -0.000000 -0.000000 -0.000000 -0.000000  0.000000  0.000000
  8O   1dyz      -0.000000 -0.000000  0.000000 -0.000000 -0.000000  0.000000
  8O   1dx2y2    -0.000025  0.000302 -0.000221  0.000032  0.000115  0.000153
  8O   1dxy      -0.000060 -0.000214 -0.000081 -0.000017 -0.000036 -0.000178
  8O   2dz2      -0.000109 -0.000488 -0.000512 -0.000179  0.000118  0.002760
  8O   2dxz       0.000000 -0.000000 -0.000000  0.000000 -0.000000 -0.000001
  8O   2dyz       0.000001  0.000000 -0.000000  0.000001  0.000000 -0.000001
  8O   2dx2y2     0.000022 -0.000923  0.000029 -0.000514 -0.000293  0.000196
  8O   2dxy       0.000354 -0.001337 -0.001221  0.000362  0.000133  0.001264
  9H   1s        -0.000309 -0.000226  0.000300 -0.000414 -0.000086  0.000421
  9H   2s        -0.003394 -0.011822  0.017490 -0.002618 -0.002153 -0.015633
  9H   3s         0.001211  0.000830 -0.003288 -0.001514 -0.001073  0.004048
  9H   1pz       -0.000000  0.000001 -0.000000 -0.000000  0.000000  0.000000
  9H   1px       -0.000132  0.001001  0.000030 -0.000153 -0.000217  0.000520
  9H   1py       -0.000092  0.000654  0.000015  0.000134  0.000005 -0.000642
  9H   2pz        0.000001 -0.000002  0.000002  0.000000  0.000000 -0.000001
  9H   2px        0.001440 -0.004020  0.000589 -0.000104 -0.000053  0.002758
  9H   2py       -0.000760 -0.003976  0.005304 -0.000874 -0.001127 -0.004688
 10O   1s        -1.008682  0.000053  0.000187  0.000025  0.000022  0.000026
 10O   2s        -0.022315  0.000050  0.000188  0.000025  0.000039  0.000060
 10O   3s         0.031805 -0.000479 -0.001939 -0.000042 -0.000032 -0.000166
 10O   4s         0.025264 -0.001421 -0.004045 -0.000406 -0.001291 -0.000647
 10O   1pz        0.000002  0.000000  0.000000 -0.000000 -0.000000 -0.000000
 10O   1px        0.001246  0.000058  0.000152 -0.000038 -0.000020 -0.000005
 10O   1py        0.000990  0.000011  0.000019 -0.000010 -0.000008  0.000072
 10O   2pz       -0.000004 -0.000000  0.000000  0.000001  0.000000 -0.000000
 10O   2px       -0.003074  0.000036  0.000401  0.000419  0.000115 -0.000600
 10O   2py       -0.001129 -0.000093 -0.000418  0.000369  0.000309 -0.000673
 10O   3pz       -0.000007  0.000000  0.000001  0.000000  0.000000  0.000000
 10O   3px       -0.005893  0.000125  0.001189  0.000092  0.000185 -0.000195
 10O   3py       -0.002078  0.000343  0.000034  0.000335  0.000688 -0.000481
 10O   1dz2       0.000419  0.000032  0.000096  0.000026 -0.000003 -0.000067
 10O   1dxz      -0.000001 -0.000000 -0.000000  0.000000  0.000000  0.000000
 10O   1dyz       0.000000 -0.000000  0.000000  0.000000 -0.000000 -0.000000
 10O   1dx2y2     0.000187 -0.000013 -0.000174  0.000031  0.000022 -0.000040
 10O   1dxy       0.000315 -0.000058  0.000045  0.000000 -0.000015 -0.000042
 10O   2dz2      -0.000255 -0.000095 -0.000155  0.000010  0.000079  0.000102
 10O   2dxz      -0.000000  0.000000  0.000001 -0.000000 -0.000000  0.000000
 10O   2dyz      -0.000001  0.000000  0.000000 -0.000000  0.000000  0.000000
 10O   2dx2y2    -0.000611 -0.000096  0.000335 -0.000164 -0.000083  0.000404
 10O   2dxy      -0.000876  0.000124  0.000138 -0.000083  0.000018  0.000246
 11H   1s        -0.000466 -0.000155 -0.000011 -0.000029  0.000026  0.000028
 11H   2s        -0.011559  0.000268 -0.000990  0.000798  0.001743  0.000564
 11H   3s         0.000334  0.001143 -0.000886 -0.000115  0.000423 -0.000624
 11H   1pz        0.000000 -0.000000  0.000000  0.000000  0.000000  0.000000
 11H   1px       -0.000110 -0.000064  0.000138 -0.000021  0.000009  0.000088
 11H   1py        0.001363 -0.000045  0.000010  0.000097  0.000057 -0.000048
 11H   2pz       -0.000003  0.000000  0.000000 -0.000001  0.000000 -0.000000
 11H   2px       -0.001290  0.000465  0.000420 -0.000299 -0.000163  0.000049
 11H   2py       -0.005800  0.000285 -0.000439 -0.000083  0.000583  0.000008
 12H   1s        -0.001030 -0.000106  0.000438  0.000034  0.000002 -0.000094
 12H   2s        -0.018470  0.000522  0.001431  0.002148  0.001021 -0.003920
 12H   3s        -0.000560 -0.002182  0.001358 -0.000562 -0.001640  0.001680
 12H   1pz        0.000002  0.000000  0.000000  0.000000  0.000000 -0.000000
 12H   1px        0.001533  0.000123  0.000381  0.000020 -0.000017 -0.000212
 12H   1py       -0.000303  0.000010  0.000038 -0.000065 -0.000053  0.000121
 12H   2pz       -0.000016  0.000001  0.000004 -0.000001 -0.000002  0.000003
 12H   2px       -0.015136  0.000680  0.004103 -0.001604 -0.001555  0.003349
 12H   2py        0.000762 -0.000292 -0.000272 -0.000901  0.000159  0.002901
                      6         7         8         9        10        11   
                  -9.49175  -0.86687  -0.81556  -0.80777  -0.78759  -0.59309
                   2.00000   2.00000   2.00000   2.00000   2.00000   2.00000
                  --------  --------  --------  --------  --------  --------
  0C   1s         0.016227  0.011589  0.011762  0.013807  0.010727 -0.019531
  0C   2s        -0.002342 -0.086880 -0.089685 -0.117352 -0.106204  0.138443
  0C   3s         0.065315  0.049197 -0.157506 -0.181434 -0.046005  0.031837
  0C   4s         0.025007  0.014067 -0.104238  0.215556  0.187885  0.238173
  0C   1pz        0.000001 -0.000012 -0.000006 -0.000005 -0.000006 -0.000009
  0C   1px        0.001568 -0.026215  0.010794  0.024133  0.026306 -0.045372
  0C   1py       -0.000310  0.034714  0.083189  0.114197  0.067703  0.154843
  0C   2pz        0.000015  0.000029 -0.000013 -0.000036  0.000026 -0.000014
  0C   2px        0.039374  0.116078 -0.052083 -0.074401  0.111893 -0.076514
  0C   2py        0.011584  0.016856 -0.072193 -0.032904 -0.021593  0.083999
  0C   3pz        0.000000 -0.000005  0.000016  0.000002  0.000001  0.000003
  0C   3px       -0.001907 -0.020942  0.009565  0.054701 -0.025926  0.033475
  0C   3py        0.004380  0.002294 -0.013878 -0.010492  0.026131  0.019292
  0C   1dz2      -0.003450  0.009049  0.008753  0.010893  0.007894 -0.005541
  0C   1dxz       0.000003 -0.000003 -0.000001  0.000001  0.000001  0.000005
  0C   1dyz       0.000001 -0.000001  0.000003  0.000004  0.000000 -0.000001
  0C   1dx2y2     0.003110  0.003743  0.011473  0.017976  0.018602  0.012953
  0C   1dxy       0.001989 -0.006405 -0.001213 -0.001174 -0.009690 -0.013163
  0C   2dz2      -0.005475  0.012180 -0.000471 -0.003668 -0.005078 -0.016315
  0C   2dxz       0.000010 -0.000017  0.000004 -0.000035 -0.000002 -0.000020
  0C   2dyz       0.000005  0.000006 -0.000008 -0.000004  0.000005  0.000006
  0C   2dx2y2     0.017301 -0.044956 -0.039492 -0.096463 -0.028945 -0.092301
  0C   2dxy       0.013480  0.058106 -0.008931  0.027781  0.049554  0.002357
  1C   1s        -1.014413  0.026699 -0.001146 -0.006452  0.001349 -0.005091
  1C   2s        -0.039066 -0.200073  0.033553  0.073154 -0.042280  0.042509
  1C   3s        -0.089011 -0.137719  0.109211  0.158938 -0.119059  0.111956
  1C   4s        -0.021863  0.081260  0.055233 -0.194176 -0.074461 -0.255932
  1C   1pz       -0.000000 -0.000014  0.000022  0.000024 -0.000025 -0.000026
  1C   1px       -0.001485 -0.065800  0.026905  0.046899  0.034244 -0.076390
  1C   1py       -0.001451 -0.015899  0.092981  0.102096 -0.174586 -0.025026
  1C   2pz        0.000005  0.000042 -0.000037 -0.000006  0.000018 -0.000016
  1C   2px        0.020656  0.155057 -0.079315 -0.072997  0.045442 -0.041471
  1C   2py        0.012143 -0.025480 -0.035679 -0.079503  0.017435 -0.091550
  1C   3pz       -0.000000 -0.000007 -0.000039  0.000035  0.000017  0.000035
  1C   3px        0.002197 -0.023515 -0.056190  0.063692  0.030779  0.077043
  1C   3py       -0.002175  0.002226 -0.025887  0.017907  0.027306  0.023059
  1C   1dz2       0.006860  0.019956 -0.002132 -0.006442  0.003640 -0.001101
  1C   1dxz      -0.000002 -0.000003 -0.000000  0.000002 -0.000004  0.000003
  1C   1dyz      -0.000003 -0.000010  0.000003  0.000005 -0.000007 -0.000003
  1C   1dx2y2     0.002158  0.017634 -0.007430 -0.012478  0.005630  0.011127
  1C   1dxy      -0.001286 -0.000105  0.006779  0.003719 -0.031619 -0.005769
  1C   2dz2      -0.001392 -0.009005  0.005014  0.008629  0.003562  0.002048
  1C   2dxz       0.000004 -0.000026  0.000019 -0.000010 -0.000012  0.000001
  1C   2dyz      -0.000001  0.000005 -0.000010  0.000001  0.000020  0.000020
  1C   2dx2y2    -0.001949 -0.061464  0.056200  0.019084 -0.052112 -0.012407
  1C   2dxy      -0.002033 -0.027972 -0.026447  0.025990  0.035324  0.055289
  2C   1s         0.000750  0.001220  0.002085  0.003066  0.002683 -0.025107
  2C   2s         0.001467 -0.017101 -0.015467 -0.020568 -0.033641  0.350274
  2C   3s         0.007992  0.089025  0.014425  0.027421  0.047818  0.118750
  2C   4s        -0.008006 -0.058460  0.032649  0.017776 -0.112047  0.024348
  2C   1pz        0.000000 -0.000002 -0.000001 -0.000001 -0.000003  0.000007
  2C   1px        0.000240 -0.008451 -0.004224 -0.005563 -0.013026  0.033814
  2C   1py       -0.000137  0.007077  0.010997  0.015213  0.014934 -0.014939
  2C   2pz       -0.000002  0.000013  0.000003  0.000004  0.000008 -0.000007
  2C   2px        0.000736  0.028329 -0.000865 -0.010776  0.046377  0.002936
  2C   2py        0.012209 -0.051011 -0.002871 -0.021279 -0.048469 -0.068279
  2C   3pz       -0.000001  0.000002 -0.000001  0.000003 -0.000005  0.000004
  2C   3px       -0.001473 -0.013194  0.001682 -0.000007 -0.014033  0.008331
  2C   3py        0.001648  0.008403 -0.004719 -0.003863  0.019376 -0.015636
  2C   1dz2       0.000716  0.001119  0.001264  0.001609  0.002397 -0.004234
  2C   1dxz       0.000000 -0.000001 -0.000001 -0.000001 -0.000001  0.000002
  2C   1dyz      -0.000000  0.000001  0.000001  0.000001  0.000001 -0.000002
  2C   1dx2y2     0.000706 -0.000942  0.001906  0.002077  0.002040  0.003050
  2C   1dxy       0.000556  0.002885  0.002617  0.003488  0.004621 -0.006204
  2C   2dz2       0.004910  0.000127  0.001579  0.001421 -0.001041 -0.008460
  2C   2dxz      -0.000003 -0.000005  0.000004  0.000003  0.000003 -0.000000
  2C   2dyz      -0.000001  0.000000 -0.000007  0.000004 -0.000005  0.000003
  2C   2dx2y2     0.001267 -0.018154 -0.006992 -0.015799 -0.003997 -0.020121
  2C   2dxy       0.000722 -0.011255 -0.005241 -0.006238 -0.021319 -0.022350
  3H   1s        -0.000554 -0.005154 -0.005987 -0.007849 -0.010978  0.147194
  3H   2s         0.000053  0.022449  0.007557  0.009407  0.033611  0.030841
  3H   3s        -0.000286 -0.004428 -0.002883  0.002282  0.002110  0.000619
  3H   1pz       -0.000030  0.000715  0.000988  0.001301  0.001585 -0.017929
  3H   1px       -0.000045 -0.000586 -0.000547 -0.000395 -0.001344  0.013456
  3H   1py       -0.000469 -0.000042 -0.000119 -0.000356 -0.000290  0.003345
  3H   2pz       -0.001587 -0.006642 -0.002517 -0.003188 -0.009124 -0.012181
  3H   2px        0.000158  0.000074  0.001655  0.002656  0.004959  0.004008
  3H   2py       -0.000781  0.002113 -0.001764 -0.000181 -0.002814  0.005043
  4H   1s        -0.000554 -0.005154 -0.005986 -0.007850 -0.010978  0.147192
  4H   2s         0.000049  0.022476  0.007540  0.009416  0.033599  0.030830
  4H   3s        -0.000289 -0.004419 -0.002876  0.002286  0.002111  0.000622
  4H   1pz        0.000029 -0.000715 -0.000988 -0.001300 -0.001585  0.017935
  4H   1px       -0.000045 -0.000586 -0.000546 -0.000394 -0.001343  0.013449
  4H   1py       -0.000469 -0.000041 -0.000119 -0.000355 -0.000290  0.003344
  4H   2pz        0.001586  0.006649  0.002510  0.003194  0.009122  0.012181
  4H   2px        0.000155  0.000076  0.001652  0.002663  0.004955  0.004002
  4H   2py       -0.000781  0.002113 -0.001769 -0.000181 -0.002816  0.005046
  5H   1s         0.000990 -0.005377 -0.001899 -0.002085 -0.009802  0.156612
  5H   2s        -0.011308 -0.017830 -0.019999 -0.027171  0.023329  0.043225
  5H   3s        -0.000101 -0.000096  0.005293  0.006358 -0.011322  0.010045
  5H   1pz        0.000000 -0.000000  0.000000 -0.000000 -0.000000 -0.000003
  5H   1px        0.000195 -0.000014 -0.000113  0.000253 -0.001055 -0.008306
  5H   1py       -0.000222  0.001878  0.000846  0.001367  0.002484 -0.021608
  5H   2pz        0.000001 -0.000002  0.000004 -0.000003  0.000001 -0.000004
  5H   2px        0.000986 -0.000608  0.006460  0.006245  0.005045 -0.001784
  5H   2py        0.004902  0.008792  0.008150  0.011011 -0.004086 -0.016630
  6O   1s         0.000537  0.006821  0.010974  0.015099  0.010792  0.004979
  6O   2s         0.000988 -0.108102 -0.183322 -0.249719 -0.195248 -0.125240
  6O   3s        -0.000219 -0.129375 -0.225001 -0.316100 -0.233217 -0.179312
  6O   4s         0.000440 -0.040108 -0.041880 -0.118103 -0.061664 -0.076667
  6O   1pz       -0.000000  0.000001  0.000003  0.000005  0.000004 -0.000001
  6O   1px       -0.000063 -0.015779 -0.014136 -0.016396 -0.003328 -0.015814
  6O   1py        0.000539 -0.041162 -0.064605 -0.087216 -0.067929  0.008307
  6O   2pz        0.000001 -0.000002  0.000003  0.000005  0.000000  0.000002
  6O   2px        0.001752 -0.008275 -0.007849 -0.003782 -0.002429 -0.010261
  6O   2py       -0.005666 -0.012196 -0.020089 -0.028078 -0.023444  0.017625
  6O   3pz        0.000001  0.000001 -0.000003  0.000004 -0.000001  0.000005
  6O   3px        0.003003 -0.002137 -0.010013 -0.010164 -0.000568  0.000584
  6O   3py       -0.000470 -0.007223 -0.002580 -0.019975 -0.013935 -0.014327
  6O   1dz2      -0.000209  0.002744  0.003531  0.004676  0.003119  0.000208
  6O   1dxz       0.000000 -0.000000  0.000000 -0.000000  0.000000  0.000000
  6O   1dyz      -0.000000  0.000000  0.000001  0.000001  0.000001 -0.000000
  6O   1dx2y2    -0.000024  0.002528  0.004975  0.006931  0.005662 -0.000128
  6O   1dxy       0.000200 -0.001897 -0.001829 -0.002256 -0.001344 -0.001635
  6O   2dz2       0.002368 -0.003378 -0.003159 -0.004971 -0.002956 -0.004852
  6O   2dxz      -0.000002  0.000002 -0.000000  0.000002  0.000000  0.000000
  6O   2dyz       0.000001 -0.000002  0.000000  0.000000 -0.000001 -0.000000
  6O   2dx2y2     0.001251 -0.002784 -0.004322 -0.006502 -0.004068 -0.009532
  6O   2dxy      -0.000316 -0.001985  0.001663  0.003582 -0.001156  0.000022
  7O   1s        -0.001848  0.013157 -0.008610 -0.010095  0.011875  0.001213
  7O   2s        -0.003093 -0.212083  0.145437  0.188164 -0.232516 -0.056463
  7O   3s         0.017269 -0.240548  0.189767  0.218621 -0.270220 -0.060986
  7O   4s         0.014835 -0.045899  0.055678  0.061690 -0.073402  0.015342
  7O   1pz       -0.000000  0.000018 -0.000005 -0.000019  0.000018 -0.000005
  7O   1px       -0.000346  0.022126 -0.010714 -0.025925  0.035581 -0.018752
  7O   1py       -0.001312  0.087565 -0.046195 -0.067729  0.068849  0.005968
  7O   2pz       -0.000004  0.000005 -0.000002 -0.000004 -0.000003 -0.000011
  7O   2px       -0.006227  0.005804 -0.000389 -0.003955  0.010830 -0.025609
  7O   2py       -0.017400  0.027573 -0.010500 -0.015697  0.004038 -0.004479
  7O   3pz        0.000001 -0.000005  0.000008 -0.000006 -0.000005 -0.000011
  7O   3px       -0.000091 -0.001193  0.012394 -0.007068 -0.004494 -0.020640
  7O   3py       -0.002321 -0.000005 -0.006722 -0.009197  0.010213 -0.003229
  7O   1dz2      -0.001123  0.004811 -0.003049 -0.003573  0.003986 -0.000048
  7O   1dxz       0.000000 -0.000001  0.000001  0.000001 -0.000001  0.000000
  7O   1dyz       0.000001 -0.000003  0.000002  0.000003 -0.000003  0.000000
  7O   1dx2y2    -0.001370  0.007088 -0.003168 -0.005311  0.003827  0.001224
  7O   1dxy       0.001098 -0.003962  0.002813  0.003750 -0.005808  0.001128
  7O   2dz2      -0.003183 -0.001779  0.005425  0.002843 -0.006294 -0.002131
  7O   2dxz       0.000000 -0.000001 -0.000001  0.000001 -0.000002  0.000002
  7O   2dyz       0.000002  0.000002 -0.000003 -0.000002  0.000005  0.000002
  7O   2dx2y2    -0.004027 -0.002752  0.004650  0.005366 -0.013862 -0.000370
  7O   2dxy       0.003419  0.005321 -0.004789 -0.005022  0.000281  0.003709
  8O   1s        -0.002214  0.016010  0.002927 -0.000311 -0.012741 -0.000296
  8O   2s        -0.003753 -0.280790 -0.066234 -0.003216  0.291657 -0.009367
  8O   3s         0.013619 -0.317043 -0.073024  0.005734  0.320022  0.001503
  8O   4s         0.005869 -0.039054 -0.046144 -0.003723  0.123938  0.084933
  8O   1pz       -0.000000  0.000025  0.000012  0.000004 -0.000032 -0.000001
  8O   1px        0.000098  0.079553  0.025023  0.006651 -0.067776 -0.007405
  8O   1py       -0.000286 -0.022618  0.012972  0.016614 -0.014658  0.003167
  8O   2pz       -0.000001 -0.000011 -0.000002  0.000003  0.000006 -0.000001
  8O   2px       -0.012283  0.026655  0.000184  0.004907 -0.007563 -0.000925
  8O   2py        0.011849 -0.061225 -0.006309  0.009887  0.027576 -0.001155
  8O   3pz        0.000001  0.000005  0.000006 -0.000001 -0.000020 -0.000008
  8O   3px       -0.000514  0.014961  0.013160  0.001175 -0.038973 -0.027739
  8O   3py        0.003893 -0.005771 -0.002375 -0.003845 -0.003610  0.009142
  8O   1dz2      -0.000914  0.006591  0.001375 -0.000252 -0.004101 -0.000069
  8O   1dxz       0.000000 -0.000003 -0.000001 -0.000000  0.000004  0.000000
  8O   1dyz       0.000000 -0.000003 -0.000001  0.000000  0.000003 -0.000001
  8O   1dx2y2    -0.000311  0.000729 -0.001322 -0.001503  0.001334  0.001416
  8O   1dxy      -0.000925  0.002388 -0.000734 -0.000791  0.000878 -0.000778
  8O   2dz2      -0.002895 -0.007390 -0.004651  0.000391  0.008921  0.000705
  8O   2dxz       0.000001  0.000012  0.000005 -0.000001 -0.000009  0.000001
  8O   2dyz      -0.000001  0.000012  0.000006 -0.000000 -0.000010  0.000000
  8O   2dx2y2     0.001762  0.000506 -0.001705 -0.004058  0.001848  0.000678
  8O   2dxy      -0.005463  0.019042  0.004154 -0.001883 -0.010044  0.001706
  9H   1s        -0.000154 -0.132617 -0.048704 -0.018489  0.135929 -0.009917
  9H   2s         0.004673 -0.021212  0.040558  0.028458 -0.059961 -0.045446
  9H   3s         0.000936  0.002786 -0.003887 -0.011863  0.007884  0.001983
  9H   1pz       -0.000000 -0.000013 -0.000004 -0.000001  0.000014 -0.000000
  9H   1px        0.000809 -0.011820 -0.002558  0.000801  0.015226  0.000547
  9H   1py       -0.001754 -0.022076 -0.007153 -0.002187  0.022981 -0.000909
  9H   2pz        0.000001 -0.000009  0.000006  0.000003 -0.000003 -0.000005
  9H   2px        0.002595 -0.013710 -0.004059 -0.006991  0.002556  0.002626
  9H   2py        0.001624 -0.010737  0.010650  0.008542 -0.014969 -0.012454
 10O   1s        -0.000098  0.000931 -0.011480  0.008997 -0.001089 -0.000076
 10O   2s        -0.000158 -0.035029  0.340739 -0.268675  0.039746  0.005280
 10O   3s         0.001297 -0.023604  0.304641 -0.244896  0.035911  0.006251
 10O   4s        -0.000755  0.007737  0.070753 -0.060688  0.006261 -0.003219
 10O   1pz       -0.000000  0.000011 -0.000089  0.000067 -0.000008  0.000002
 10O   1px       -0.000082  0.008679 -0.061524  0.044722 -0.004536  0.002446
 10O   1py        0.000021  0.005446 -0.055905  0.045409 -0.008269 -0.002084
 10O   2pz       -0.000001 -0.000004  0.000013 -0.000010  0.000004  0.000001
 10O   2px       -0.000991 -0.002660  0.008369 -0.006128  0.002835  0.000753
 10O   2py       -0.000100 -0.001018  0.012344 -0.010773  0.004703  0.000903
 10O   3pz        0.000001 -0.000005 -0.000021  0.000019 -0.000002  0.000002
 10O   3px        0.000139 -0.003487 -0.016813  0.015718 -0.002888  0.000217
 10O   3py       -0.000091  0.000204 -0.011857  0.007529  0.002777  0.003716
 10O   1dz2      -0.000121  0.000481 -0.005471  0.004239 -0.000397 -0.000011
 10O   1dxz       0.000000 -0.000001  0.000011 -0.000008  0.000001 -0.000000
 10O   1dyz      -0.000000 -0.000000  0.000003 -0.000003  0.000000  0.000000
 10O   1dx2y2     0.000051 -0.000027 -0.000089  0.000228 -0.000042 -0.000191
 10O   1dxy      -0.000084 -0.000062  0.000403 -0.000271  0.000034  0.000005
 10O   2dz2       0.000142 -0.001619  0.017092 -0.013259  0.001518  0.000423
 10O   2dxz       0.000000  0.000003 -0.000034  0.000026 -0.000004 -0.000000
 10O   2dyz       0.000000  0.000001 -0.000009  0.000008 -0.000002 -0.000001
 10O   2dx2y2     0.000347 -0.000115  0.000240 -0.000241 -0.000618  0.000426
 10O   2dxy       0.000325 -0.000570  0.000304  0.000478 -0.000810 -0.000237
 11H   1s         0.000120 -0.016570  0.164066 -0.130805  0.020907  0.003592
 11H   2s         0.002288 -0.006437 -0.024678  0.020179  0.009399  0.008590
 11H   3s        -0.000492 -0.000951  0.000055 -0.001537  0.006267  0.002099
 11H   1pz        0.000000 -0.000000  0.000004 -0.000003  0.000000  0.000000
 11H   1px        0.000078  0.000946 -0.005641  0.004547 -0.001175  0.000142
 11H   1py       -0.000071 -0.003569  0.032778 -0.025850  0.004349  0.000866
 11H   2pz       -0.000000  0.000006 -0.000005  0.000001 -0.000004 -0.000002
 11H   2px       -0.000368  0.003883 -0.000437 -0.001684 -0.002924 -0.001502
 11H   2py        0.000913  0.000578 -0.006859  0.005434 -0.000094  0.001260
 12H   1s         0.000078 -0.024677  0.159010 -0.111625  0.007637 -0.005047
 12H   2s        -0.005825  0.002126 -0.040957  0.026646  0.007652 -0.000590
 12H   3s         0.001128  0.002289  0.011240 -0.007127 -0.009959 -0.010842
 12H   1pz       -0.000001 -0.000004  0.000032 -0.000025  0.000004  0.000000
 12H   1px       -0.000689 -0.003563  0.029415 -0.023013  0.003763  0.000404
 12H   1py        0.000194  0.001342 -0.010710  0.008152 -0.001272 -0.000015
 12H   2pz        0.000000 -0.000005 -0.000021  0.000025 -0.000016 -0.000004
 12H   2px        0.000171 -0.004711 -0.019703  0.020955 -0.013988 -0.003401
 12H   2py        0.002867 -0.001613 -0.000157  0.002994 -0.006813  0.001865
                     12        13        14        15        16        17   
                  -0.48285  -0.39063  -0.36216  -0.34589  -0.30964  -0.30946
                   2.00000   2.00000   2.00000   2.00000   2.00000   2.00000
                  --------  --------  --------  --------  --------  --------
  0C   1s         0.014083 -0.005516  0.002963  0.004448 -0.000018  0.002951
  0C   2s        -0.198678  0.050979 -0.050644 -0.174750  0.000176 -0.030568
  0C   3s        -0.256302  0.124688 -0.115755 -0.128075  0.001260 -0.215642
  0C   4s         0.194481  0.143206  0.016167  0.149614 -0.000846  0.089689
  0C   1pz       -0.000060 -0.000003 -0.000004  0.000050 -0.210787 -0.001203
  0C   1px       -0.219181  0.039745  0.008841  0.259949  0.000493 -0.083165
  0C   1py       -0.086764  0.055831  0.017171 -0.012828 -0.001196  0.212714
  0C   2pz       -0.000033  0.000028 -0.000016  0.000024 -0.089004 -0.000471
  0C   2px       -0.129611  0.160009 -0.037070  0.088713 -0.000562  0.104910
  0C   2py       -0.071995  0.016150  0.004105  0.051799 -0.000155  0.021263
  0C   3pz       -0.000004 -0.000018  0.000001  0.000002  0.003519  0.000014
  0C   3px       -0.009629 -0.074171  0.002291  0.033308 -0.000049  0.012652
  0C   3py        0.032779  0.030288 -0.007035  0.018063 -0.000109  0.010234
  0C   1dz2       0.003810 -0.001731  0.001035  0.000426 -0.000031  0.005254
  0C   1dxz      -0.000008 -0.000000 -0.000002  0.000003  0.006733  0.000034
  0C   1dyz      -0.000002  0.000003  0.000001 -0.000000 -0.003546 -0.000016
  0C   1dx2y2    -0.013459 -0.004963 -0.001753  0.001144  0.000023 -0.004471
  0C   1dxy      -0.005996  0.000382  0.003104 -0.007488 -0.000033  0.006264
  0C   2dz2      -0.002190 -0.006974  0.000181 -0.006893 -0.000006  0.004509
  0C   2dxz       0.000017 -0.000013 -0.000003 -0.000024  0.046009  0.000248
  0C   2dyz      -0.000012  0.000014 -0.000001  0.000015 -0.010960 -0.000042
  0C   2dx2y2     0.037380 -0.023406 -0.022304 -0.077430  0.000710 -0.112185
  0C   2dxy      -0.043556  0.064638  0.013171  0.044326 -0.000577  0.095529
  1C   1s         0.017622  0.004415  0.000279 -0.004674 -0.000007  0.001095
  1C   2s        -0.216308 -0.143989  0.024937  0.087208 -0.000192  0.036550
  1C   3s        -0.110487 -0.268442  0.066107  0.075389 -0.000335  0.048839
  1C   4s        -0.168642  0.066866  0.002427 -0.166530  0.000183 -0.004718
  1C   1pz        0.000064 -0.000065 -0.000008 -0.000024 -0.142642 -0.000779
  1C   1px        0.204218 -0.241689 -0.000927 -0.053222  0.000040  0.005175
  1C   1py        0.091304  0.079214  0.100323 -0.057018 -0.001156  0.209618
  1C   2pz       -0.000010  0.000029 -0.000009  0.000005 -0.083384 -0.000471
  1C   2px       -0.038359  0.047753 -0.027038  0.024639 -0.000143  0.028452
  1C   2py        0.052413  0.031389 -0.010123 -0.083702  0.000211 -0.023071
  1C   3pz        0.000029  0.000028  0.000002  0.000030 -0.012703 -0.000060
  1C   3px        0.069498  0.037324  0.006231  0.055814 -0.000040 -0.009839
  1C   3py        0.006304  0.005328  0.007483  0.024266 -0.000088  0.013366
  1C   1dz2       0.004700  0.006576 -0.001460 -0.000807  0.000014 -0.001912
  1C   1dxz      -0.000006 -0.000003 -0.000003 -0.000001  0.006280  0.000037
  1C   1dyz       0.000001  0.000008 -0.000000  0.000003  0.001985  0.000010
  1C   1dx2y2    -0.011521 -0.018026 -0.009770 -0.011431 -0.000022  0.003077
  1C   1dxy      -0.001811  0.014394  0.000739  0.001092  0.000022 -0.003856
  1C   2dz2       0.003974  0.001163 -0.001134  0.002088  0.000038 -0.005105
  1C   2dxz       0.000020 -0.000026  0.000004 -0.000018  0.014612  0.000089
  1C   2dyz      -0.000005  0.000003  0.000009  0.000016  0.028027  0.000164
  1C   2dx2y2     0.048268 -0.045207  0.010504 -0.054908  0.000053 -0.004720
  1C   2dxy       0.011638 -0.006771  0.024687  0.032381 -0.000088  0.008019
  2C   1s        -0.006448 -0.000612 -0.000142 -0.000438  0.000014 -0.002643
  2C   2s         0.152557 -0.028894  0.006513  0.054035  0.000070 -0.012529
  2C   3s        -0.009699  0.070378 -0.000891 -0.016759 -0.001142  0.199839
  2C   4s        -0.040400 -0.149601 -0.019187  0.013457  0.000451 -0.061590
  2C   1pz       -0.000022  0.000011 -0.000005 -0.000026 -0.381493 -0.002097
  2C   1px       -0.102453  0.072214 -0.013210 -0.148888 -0.001276  0.239300
  2C   1py        0.022418  0.006033  0.039876  0.292092 -0.000331  0.053960
  2C   2pz       -0.000009  0.000010  0.000007 -0.000027 -0.035893 -0.000185
  2C   2px       -0.013712  0.065366 -0.002483 -0.102883 -0.000682  0.127774
  2C   2py        0.014248 -0.068971  0.000947  0.029518  0.000980 -0.165753
  2C   3pz       -0.000007 -0.000005  0.000008  0.000001  0.015474  0.000080
  2C   3px       -0.002149 -0.013956 -0.008016 -0.002016  0.000018 -0.001210
  2C   3py        0.000738  0.026540 -0.000558 -0.011242 -0.000039  0.004039
  2C   1dz2       0.004290 -0.003084  0.000157  0.005512  0.000053 -0.008967
  2C   1dxz      -0.000004  0.000001 -0.000000 -0.000001  0.003973  0.000025
  2C   1dyz       0.000001  0.000000  0.000001  0.000003  0.009369  0.000053
  2C   1dx2y2    -0.007462  0.000604 -0.000441  0.000221  0.000002 -0.000271
  2C   1dxy       0.004217 -0.001846  0.001996  0.015219  0.000013 -0.002935
  2C   2dz2      -0.011818  0.002288 -0.003550  0.014257 -0.000154  0.022731
  2C   2dxz       0.000011 -0.000002  0.000004 -0.000012 -0.039476 -0.000232
  2C   2dyz      -0.000004  0.000000 -0.000003  0.000000 -0.036667 -0.000222
  2C   2dx2y2     0.014660 -0.001782  0.003504 -0.013556  0.000177 -0.025821
  2C   2dxy      -0.002326 -0.022403  0.000733 -0.024886  0.000334 -0.054693
  3H   1s         0.107664 -0.043618  0.005652  0.064115 -0.244126 -0.121247
  3H   2s         0.025414  0.009961  0.006009  0.000836 -0.202407 -0.048860
  3H   3s        -0.000390 -0.001912 -0.001089  0.000380 -0.029612 -0.000439
  3H   1pz       -0.011466  0.003631 -0.000588 -0.005906  0.006325  0.009100
  3H   1px        0.005102 -0.000767  0.000229  0.000272 -0.013953 -0.000150
  3H   1py        0.002845 -0.000256  0.001287  0.009709 -0.002399  0.000669
  3H   2pz       -0.005055 -0.003569  0.001375 -0.005313  0.026398 -0.002561
  3H   2px        0.006179  0.000026  0.002212 -0.003995 -0.016323 -0.016911
  3H   2py        0.001815 -0.000959  0.001389 -0.000998  0.002019 -0.004159
  4H   1s         0.107665 -0.043613  0.005656  0.064116  0.245493 -0.118487
  4H   2s         0.025376  0.009975  0.006024  0.000846  0.202971 -0.046621
  4H   3s        -0.000403 -0.001911 -0.001067  0.000379  0.029622 -0.000117
  4H   1pz        0.011468 -0.003631  0.000588  0.005907  0.006434 -0.009028
  4H   1px        0.005097 -0.000765  0.000229  0.000270  0.013951  0.000011
  4H   1py        0.002845 -0.000256  0.001287  0.009709  0.002390  0.000696
[...]
 1 C  s               0.0       0.9       0.0       1.3       0.2       1.6
 1 C  px              0.0       0.2       0.5       0.2       0.2       0.1
 1 C  py              0.0       0.4       0.2       1.2       0.3       0.0
 1 C  dz2             0.0       0.1       0.0       0.0       0.1       0.3
 1 C  dyz             0.2       0.0       0.0       0.0       0.0       0.0
 1 C  dx2y2           0.0       0.3       0.5       1.1       0.1       1.2
 1 C  dxy             0.0       0.1       1.1       0.5       2.1       0.6
 2 C  s               0.0       0.2       0.2       0.0       0.2       0.1
 2 C  px              0.0       0.0       0.4       0.0       0.1       0.0
 2 C  py              0.0       0.0       0.0       0.1       0.0       0.2
 2 C  dz2             0.0       0.1       0.1       0.0       0.1       0.1
 2 C  dx2y2           0.0       0.0       0.4       0.1       0.1       0.0
 5 H  s               0.0       0.1       0.1       0.0       0.0       0.1
 5 H  px              0.0       0.1       0.1       0.0       0.1       0.0
 6 O  s               0.0       0.1       8.8       1.5       1.1       4.9
 6 O  px              0.0       0.0       0.0       0.2       0.1       0.3
 6 O  py              0.0       0.0       0.2       0.1       0.2       0.7
 6 O  dz2             0.0       1.4      47.1       9.2       0.4       2.0
 6 O  dxz             1.7       0.0       0.0       0.0       0.0       0.0
 6 O  dyz             0.3       0.0       0.0       0.0       0.0       0.0
 6 O  dx2y2           0.0       0.1       2.0       0.1      15.5      30.7
 6 O  dxy             0.0       2.9      10.9      15.9      27.2       0.0
 7 O  s               0.0       1.8       0.0       6.3       0.2       1.1
 7 O  px              0.0       0.4       0.1       0.0       0.1       0.0
 7 O  py              0.0       0.1       0.0       0.6       0.2       0.0
 7 O  dz2             0.0      12.3       2.0      24.3       3.2       4.9
 7 O  dxz             4.0       0.0       0.0       0.0       0.0       0.0
 7 O  dyz             2.4       0.0       0.0       0.0       0.0       0.0
 7 O  dx2y2           0.0       0.5       0.1       2.9       0.8      21.1
 7 O  dxy             0.0      30.8       6.3       0.0       2.9       1.2
 8 O  s               0.0       3.0       0.4       2.3       4.3       1.4
 8 O  px              0.0       0.1       0.1       0.1       0.6       0.0
 8 O  py              0.0       1.0       0.1       0.0       0.5       0.2
 8 O  dz2             0.0       9.0       2.0      11.6      22.3       0.1
 8 O  dxz             0.8       0.0       0.0       0.0       0.0       0.0
 8 O  dyz             0.3       0.0       0.0       0.0       0.0       0.0
 8 O  dx2y2           0.0       1.6       0.1      12.6       3.0      10.2
 8 O  dxy             0.0       3.4       7.8       0.0       8.9       5.4
 9 H  s               0.0       0.1       0.4       0.3       0.2       0.5
 9 H  px              0.0       0.0       0.1       0.2       1.4       0.7
 9 H  py              0.0       0.0       0.1       0.5       0.0       0.3
10 O  s               0.0       0.7       0.0       0.2       0.1       0.5
10 O  pz              0.1       0.0       0.0       0.0       0.0       0.0
10 O  px              0.0       0.1       0.0       0.0       0.0       0.3
10 O  py              0.0       0.1       0.0       0.0       0.0       0.0
10 O  dz2             0.0       2.1       0.0       1.5       0.0       2.0
10 O  dxz            47.7       0.0       0.0       0.0       0.0       0.0
10 O  dyz            39.4       0.0       0.0       0.0       0.0       0.0
10 O  dx2y2           0.0       0.4       0.1       0.0       0.2       2.0
10 O  dxy             0.0      22.2       1.4       1.7       0.2       0.0
11 H  s               0.0       0.1       0.0       0.1       0.0       0.0
11 H  pz              1.1       0.0       0.0       0.0       0.0       0.0
11 H  px              0.0       0.5       0.0       0.1       0.0       0.0
12 H  s               0.0       0.1       0.0       0.2       0.1       1.0
12 H  pz              1.8       0.0       0.0       0.0       0.0       0.0
12 H  px              0.0       0.8       0.1       0.1       0.0       0.2
12 H  py              0.0       1.2       0.1       0.1       0.0       0.0

                    210       211       212       213       214   
                   3.78990   3.84784   3.93394   4.04893   4.14968
                   0.00000   0.00000   0.00000   0.00000   0.00000
                  --------  --------  --------  --------  --------
 0 C  s               0.2       2.2       0.2       0.0       0.0
 0 C  px              0.3       1.1       0.1       0.1       0.0
 0 C  py              0.5       0.3       0.1       0.6       0.0
 0 C  dz2             0.1       0.3       0.0       0.0       0.0
 0 C  dx2y2           1.3       0.7       0.1       0.1       0.0
 0 C  dxy             1.7       0.4       0.0       0.2       0.0
 1 C  s               0.1       1.1       0.1       1.0       0.2
 1 C  px              0.1       1.7       0.3       0.0       0.1
 1 C  py              0.7       1.3       0.4       0.5       0.2
 1 C  dz2             0.1       0.6       0.1       0.1       0.0
 1 C  dx2y2           0.3       2.7       0.7       0.9       0.2
 1 C  dxy             5.6       0.1       0.1       1.1       0.2
 2 C  s               0.0       0.5       0.0       0.0       0.0
 2 C  px              0.0       0.2       0.0       0.0       0.0
 2 C  py              0.1       0.1       0.0       0.0       0.0
 2 C  dz2             0.1       0.0       0.0       0.0       0.0
 2 C  dx2y2           0.1       0.0       0.0       0.0       0.0
 2 C  dxy             0.2       0.0       0.0       0.0       0.0
 6 O  s               1.4       4.9       0.0       0.1       0.0
 6 O  py              0.4       0.1       0.0       0.0       0.0
 6 O  dz2             0.4       6.0       0.1       0.3       0.0
 6 O  dx2y2          14.6       0.1       0.0       0.2       0.0
 6 O  dxy             1.4       3.3       0.2       1.5       0.0
 7 O  s               0.8       9.2       1.8       2.7       0.3
 7 O  px              0.2       0.3       0.3       0.0       0.7
 7 O  py              0.4       0.7       0.3       0.2       0.2
 7 O  dz2             1.4       8.6       6.7       1.4       1.8
 7 O  dx2y2          51.0       1.8       0.3       1.1       2.0
 7 O  dxy             0.1      21.2       6.8       2.3       1.9
 8 O  s               0.4       0.7       0.1       8.9       0.0
 8 O  px              0.4       0.0       0.1       3.7       0.0
 8 O  py              0.1       0.4       0.1       4.1       0.1
 8 O  dz2             1.7       0.2       0.1      13.5       0.0
 8 O  dx2y2           6.4       6.7       0.2       5.8       0.1
 8 O  dxy             1.8       6.2       0.9      32.8       0.1
 9 H  s               0.1       0.4       0.0       8.0       0.0
 9 H  px              0.3       0.6       0.1       2.4       0.0
 9 H  py              0.0       0.5       0.0       5.0       0.0
10 O  s               0.5       1.8      11.9       0.1       1.1
10 O  px              0.1       0.5       0.8       0.1       3.5
10 O  py              0.0       0.1       3.4       0.0       4.0
10 O  dz2             1.9       7.9      34.5       0.2       1.4
10 O  dx2y2           1.0       0.0       7.4       0.1      52.6
10 O  dxy             0.0       1.4       6.9       0.1       2.7
11 H  s               0.0       0.5       6.2       0.1       5.2
11 H  px              0.0       0.1       0.2       0.1       0.1
11 H  py              0.0       0.5       5.0       0.0       3.0
12 H  s               1.1       0.9       0.6       0.0       6.1
12 H  px              0.2       0.8       2.0       0.2      11.7
12 H  py              0.1       0.0       0.6       0.0       0.2


                      *****************************
                      * MAYER POPULATION ANALYSIS *
                      *****************************

  NA   - Mulliken gross atomic population
  ZA   - Total nuclear charge
  QA   - Mulliken gross atomic charge
  VA   - Mayer's total valence
  BVA  - Mayer's bonded valence
  FA   - Mayer's free valence

  ATOM       NA         ZA         QA         VA         BVA        FA
  0 C      5.9086     6.0000     0.0914     3.9278     3.9278     0.0000
  1 C      4.9786     6.0000     1.0214     2.6293     2.6293    -0.0000
  2 C      5.4392     6.0000     0.5608     3.8444     3.8444    -0.0000
  3 H      0.9867     1.0000     0.0133     0.8880     0.8880     0.0000
  4 H      0.9867     1.0000     0.0133     0.8879     0.8879     0.0000
  5 H      1.2013     1.0000    -0.2013     0.8777     0.8777    -0.0000
  6 O      8.6511     8.0000    -0.6511     1.7076     1.7076     0.0000
  7 O      8.5735     8.0000    -0.5735     1.8309     1.8309    -0.0000
  8 O      8.4997     8.0000    -0.4997     1.8848     1.8848    -0.0000
  9 H      0.7768     1.0000     0.2232     0.9802     0.9802     0.0000
 10 O      8.3108     8.0000    -0.3108     1.9258     1.9258     0.0000
 11 H      0.8839     1.0000     0.1161     1.0248     1.0248    -0.0000
 12 H      0.8030     1.0000     0.1970     0.9351     0.9351     0.0000

  Mayer bond orders larger than 0.100000
B(  0-C ,  1-C ) :   0.5475 B(  0-C ,  2-C ) :   1.3968 B(  0-C ,  3-H ) :   0.1413 
B(  0-C ,  4-H ) :   0.1412 B(  0-C ,  5-H ) :   0.2509 B(  0-C ,  6-O ) :   1.4751 
B(  0-C ,  7-O ) :  -0.1267 B(  0-C ,  8-O ) :   0.1403 B(  1-C ,  2-C ) :  -0.1326 
B(  1-C ,  5-H ) :  -0.1788 B(  1-C ,  7-O ) :   1.7050 B(  1-C ,  8-O ) :   0.7586 
B(  2-C ,  3-H ) :   0.8523 B(  2-C ,  4-H ) :   0.8523 B(  2-C ,  5-H ) :   0.8540 
B(  6-O ,  9-H ) :   0.1103 B(  8-O ,  9-H ) :   0.9301 B( 10-O , 11-H ) :   1.0495 
B( 10-O , 12-H ) :   0.9083 

-------
TIMINGS
-------

Total SCF time: 0 days 0 hours 1 min 9 sec 

Total time                  ....      69.505 sec
Sum of individual times     ....      65.325 sec  ( 94.0%)

SCF preparation             ....       0.491 sec  (  0.7%)
Fock matrix formation       ....      63.874 sec  ( 91.9%)
  Startup                   ....       0.068 sec  (  0.1% of F)
  Coulomb+Exchange Fock     ....      58.578 sec  ( 91.7% of F)
  XC integration            ....       9.081 sec  ( 14.2% of F)
    XC Preparation          ....       0.000 sec  (  0.0% of XC)
    Basis function eval.    ....       2.688 sec  ( 29.6% of XC)
    Density eval.           ....       1.388 sec  ( 15.3% of XC)
    XC-Functional eval.     ....       0.753 sec  (  8.3% of XC)
    XC-Potential eval.      ....       2.329 sec  ( 25.6% of XC)
Diagonalization             ....       0.000 sec  (  0.0%)
Density matrix formation    ....       0.081 sec  (  0.1%)
Total Energy calculation    ....       0.028 sec  (  0.0%)
Population analysis         ....       0.402 sec  (  0.6%)
Orbital Transformation      ....       0.037 sec  (  0.1%)
Orbital Orthonormalization  ....       0.000 sec  (  0.0%)
DIIS solution               ....       0.244 sec  (  0.4%)
  MO trafo                  ....       0.000 sec  (  0.0 % of DIIS)
  Orb grad                  ....       0.000 sec  (  0.0 % of DIIS)
  Energy W gradient         ....       0.000 sec  (  0.0 % of DIIS)
  DIIS error                ....       0.027 sec  ( 10.9 % of DIIS)
  DIIS work                 ....       0.188 sec  ( 77.1 % of DIIS)
  Form Q                    ....       0.000 sec  (  0.0 % of DIIS)
  Form QpQm                 ....       0.000 sec  (  0.0 % of DIIS)
  Exp/Cayley                ....       0.000 sec  (  0.0 % of DIIS)
  Orb update                ....       0.000 sec  (  0.0 % of DIIS)
  Wake-sleep                ....       0.010 sec  (  4.0 % of DIIS)
SOSCF solution              ....       0.168 sec  (  0.2%)
  MO trafo                  ....       0.068 sec  ( 40.3 % of SOSCF)
  Orb grad                  ....       0.005 sec  (  3.0 % of SOSCF)
  Rot update                ....       0.014 sec  (  8.5 % of SOSCF)
  Step                      ....       0.056 sec  ( 33.7 % of SOSCF)
Finished LeanSCF after  69.7 sec

Maximum memory used throughout the entire LEANSCF-calculation: 14.8 MB

-------------------------   --------------------
FINAL SINGLE POINT ENERGY      -418.747859506458
-------------------------   --------------------



           ************************************************************
           *        Program running with 8 parallel MPI-processes     *
           *              working on a common directory               *
           ************************************************************

------------------------------------------------------------------------------
                              ORCA PROPERTY CALCULATIONS
------------------------------------------------------------------------------

GBWName                                 ... sp_s0_1_wat.gbw
Number of atoms                         ...     13
Number of basis functions               ...    257
Max core memory                         ...   2000 MB

Electric properties:
Dipole moment                           ... YES
Quadrupole moment                       ...  NO
Static polarizability (Dipole/Dipole)   ...  NO
Static polarizability (Dipole/Quad.)    ...  NO
Static polarizability (Quad./Quad.)     ...  NO
Static polarizability (Velocity)        ...  NO
Static hyperpolarizability              ...  NO

Atomic electric properties:
Dipole moment                           ...  NO
Quadrupole moment                       ...  NO
Static polarizability                   ...  NO

Choice of electric origin               ... Center of mass
Position of electric origin             ...     1.292018     0.375400     0.001421

General magnetic properties:
Magnetizability                         ...  NO

EPR properties:
g-Tensor (aka g-matrix)                 ...  NO
Zero-Field splitting spin-orbit         ...  NO
Zero-field splitting spin-spin          ...  NO
Hyperfine couplings                     ...  NO (   0 nuclei)
Quadrupole couplings                    ...  NO (   0 nuclei)
Contact density                         ...  NO (   0 nuclei)

NMR properties:
Chemical shifts                         ...  NO (   0 nuclei)
Spin-rotation constants                 ...  NO (   0 nuclei)
Spin-spin couplings                     ...  NO (   0 nuclei,    0 pairs)

Choice of magnetic origin               ... GIAO
Position of magnetic origin             ...     0.000000     0.000000     0.000000

Properties with geometric perturbations:
SCF Hessian                             ...  NO
IR spectrum                             ...  NO
VCD spectrum                            ...  NO
X-ray spectroscopy properties:
SCF XES/XAS/RIXS spectra                ...  NO

SCF SOC stabilization energy            ...  NO
Diagonal Born-Oppenheimer correction    ...  NO

-------------
DIPOLE MOMENT
-------------

Method             : SCF
Type of density    : Electron Density
Multiplicity       :   1
Irrep              :   0
Energy             :  -418.7478595064578144 Eh
Basis              : AO
                                X                 Y                 Z
Electronic contribution:      0.213501340      -2.717800424      -0.001694352
Nuclear contribution   :     -2.373276150       2.042831376      -0.000125861
                        -----------------------------------------
Total Dipole Moment    :     -2.159774810      -0.674969048      -0.001820213
                        -----------------------------------------
Magnitude (a.u.)       :      2.262788934
Magnitude (Debye)      :      5.751552387



--------------------
Rotational spectrum 
--------------------
 
Rotational constants in cm-1:             0.175530             0.044258             0.035582 
Rotational constants in MHz :          5262.251141          1326.830036          1066.735004 

Dipole components along the rotational axes: 
x,y,z [a.u.] :    -2.262745    -0.014052    -0.000567 
x,y,z [Debye]:    -5.751441    -0.035717    -0.001442 

 

Dipole moment calculation done in   0.1 sec 

Maximum memory used throughout the entire PROP-calculation: 11.0 MB

--------------------------------
SUGGESTED CITATIONS FOR THIS RUN
--------------------------------

Below you find a list of papers that are relevant to this ORCA run
We neither can nor want to force you to cite these papers, but we appreciate if you do
You receive ORCA, which is the product of decades of hard work by many enthusiastic individuals, for free
The only thing we kindly ask in return is that you cite our papers,
We deeply appreciate it, if you show your appreciation for ORCA by not just citing the generic ORCA reference.

Please note that relegating all ORCA citations to the supporting information does *not* help us.
SI sections are not indexed - citations you put there will not count into any citation statistics
But we need these citations in order to attract the funding resources that allow us to do what we are doing

Therefore, if you are a happy ORCA user, please consider citing a few of the papers listed below in the main body of your paper

In addition to the list printed below, the program has created the file sp_s0_1_wat.bibtex that contains the list in bibtex format
You can import this file easily into all common literature databanks and citation aid programs


List of essential papers. We consider these as the minimum necessary citations

  1. Neese, F.
     Software update: the ORCA program system, version 6.0
     WIRES Comput. Molec. Sci. 2025 15(1), e70019
     doi.org/10.1002/wcms.7019

List of papers to cite with high priority. The work reported in these papers was absolutely
necessary for this run to complete.
Our perspective: the developers of density functionals and basis sets usually get cited in chemistry papers
Good! But without the algorithms to do something with them, the functionals or basis sets would not do anything.
Hence, in our opinion, the algorithm design and method developments papers are equally worthy of getting cited

  1. Lehtola, S.; Steigemann, C.; Oliveira, M.; Marques, M.
     Recent developments in Libxc - A comprehensive library of functionals for density functional theory
     Software X 2018 7 , 
     doi.org/10.1016/j.softx.2017.11.002
  2. Neese, F.
     The SHARK Integral Generation and Digestion System
     J. Comp. Chem. 2022 44(3), 381
     doi.org/10.1002/jcc.26942

List of suggested additional citations. These are papers that are important in the 'surrounding' of 
of this run, or papers that preceded the highly important papers. If you like your results we are grateful for a citation.

  1. Neese, F.
     The ORCA program system
     WIRES Comput. Molec. Sci. 2012 2(1), 73-78
     doi.org/10.1002/wcms.81
  2. Neese, F.
     Software update: the ORCA program system, version 4.0
     WIRES Comput. Molec. Sci. 2018 8(1), 1-6
     doi.org/10.1002/wcms.1327
  3. Neese, F.; Wennmohs, F.; Becker, U.; Riplinger, C.
     The ORCA quantum chemistry program package
     J. Chem. Phys. 2020 152(22), 224108
     doi.org/10.1063/5.0004608
  4. Neese, F.
     Software update: The ORCA program system—Version 5.0
     WIRES Comput. Molec. Sci. 2022 12(1), e1606
     doi.org/10.1002/wcms.1606

List of optional additional citations

  1. Neese, F.
     Approximate second-order SCF convergence for spin unrestricted wavefunctions
     Chem. Phys. Lett. 2000 325(1-3), 93-98
     doi.org/10.1016/s0009-2614(00)00662-x

Timings for individual modules:

Sum of individual times          ...       83.694 sec (=   1.395 min)
Startup calculation              ...       10.783 sec (=   0.180 min)  12.9 %
SCF iterations                   ...       71.926 sec (=   1.199 min)  85.9 %
Property calculations            ...        0.985 sec (=   0.016 min)   1.2 %
                             ****ORCA TERMINATED NORMALLY****
TOTAL RUN TIME: 0 days 0 hours 1 minutes 25 seconds 696 msec
