
                                 *****************
                                 * O   R   C   A *
                                 *****************

                                            #,                                       
                                            ###                                      
                                            ####                                     
                                            #####                                    
                                            ######                                   
                                           ########,                                 
                                     ,,################,,,,,                         
                               ,,#################################,,                 
                          ,,##########################################,,             
                       ,#########################################, ''#####,          
                    ,#############################################,,   '####,        
                  ,##################################################,,,,####,       
                ,###########''''           ''''###############################       
              ,#####''   ,,,,##########,,,,          '''####'''          '####       
            ,##' ,,,,###########################,,,                        '##       
           ' ,,###''''                  '''############,,,                           
         ,,##''                                '''############,,,,        ,,,,,,###''
      ,#''                                            '''#######################'''  
     '                                                          ''''####''''         
             ,#######,   #######,   ,#######,      ##                                
            ,#'     '#,  ##    ##  ,#'     '#,    #''#        ,####,    ,#,          
            ##       ##  ##   ,#'  ##            #'  '#       #'       ,# #          
            ##       ##  #######   ##           ,######,      #####,      #          
            '#,     ,#'  ##    ##  '#,     ,#' ,#      #,     #,   #      #          
             '#######'   ##     ##  '#######'  #'      '#     '####' #    #          



                #########################################################
                #                        -***-                          #
                #          Department of theory and spectroscopy        #
                #                                                       #
                #                      Frank Neese                      #
                #                                                       #
                #     Directorship, Architecture, Infrastructure        #
                #                    SHARK, DRIVERS                     #
                #        Core code/Algorithms in most modules           #
                #                                                       #
                #        Max Planck Institute fuer Kohlenforschung      #
                #                Kaiser Wilhelm Platz 1                 #
                #                 D-45470 Muelheim/Ruhr                 #
                #                      Germany                          #
                #                                                       #
                #                  All rights reserved                  #
                #                        -***-                          #
                #########################################################


                         Program Version 6.1.0  -  RELEASE   -
                                (GIT: $679e74b$)
                          ($2025-06-10 18:02:51 +0200$)


 With contributions from (in alphabetic order):
[Max-Planck-Institut fuer Kohlenforschung]                               
  Daniel Aravena         : Magnetic Suceptibility                        
  Michael Atanasov       : Ab Initio Ligand Field Theory (pilot matlab implementation)
  Alexander A. Auer      : GIAO ZORA, VPT2 properties, NMR spectrum      
  Ute Becker             : All parallelization in ORCA, NUMFREQ, NUMCALC 
  Giovanni Bistoni       : ED, misc. LED, open-shell LED, HFLD           
  Dmytro Bykov           : pre 5.0 version of the SCF Hessian            
  Marcos Casanova-Páez   : Triplet and SCS-CIS(D). UHF-(DLPNO)-IP/EA/STEOM-CCSD. UHF-CVS-IP/STEOM-CCSD   
  Vijay G. Chilkuri      : MRCI spin determinant printing, contributions to CSF-ICE 
  Pauline Colinet        : FMM embedding                                 
  Dipayan Datta          : RHF DLPNO-CCSD density                        
  Achintya Kumar Dutta   : EOM-CC, STEOM-CC                              
  Nicolas Foglia         : Exact transition moments, OPA infrastructure, MCD improvements    
  Dmitry Ganyushin       : Spin-Orbit,Spin-Spin,Magnetic field MRCI      
  Miquel Garcia-Rates    : C-PCM and meta-GGA Hessian, CCSD/C-PCM, Gaussian charge scheme 
  Tiago L. C. Gouveia    : GS-ROHF, GS-ROCIS                             
  Yang Guo               : DLPNO-NEVPT2, F12-NEVPT2, CIM, IAO-localization        
  Andreas Hansen         : Spin unrestricted coupled pair/coupled cluster methods 
  Ingolf Harden          : AUTO-CI MPn and infrastructure                
  Benjamin Helmich-Paris : MC-RPA, TRAH-(SCF,CASSCF), AVAS, COSX integrals, SCF dyn. polar., MC-PDFT, srDFT 
  Lee Huntington         : MR-EOM, pCC                                   
  Robert Izsak           : Overlap fitted RIJCOSX, COSX-SCS-MP3, EOM     
  Riya Kayal             : Wick's Theorem for AUTO-CI, AUTO-CI UHF-CCSDT 
  Emily Kempfer          : AUTO-CI RHF CISDT and CCSDT, approximate NEVPT4
  Christian Kollmar      : KDIIS, OOCD, Brueckner-CCSD(T), CCSD density, CASPT2, CASPT2-K, improved NEVPT2 
  Axel Koslowski         : Symmetry handling                             
  Simone Kossmann        : meta-GGA functionals, TD-DFT gradient, OOMP2, (MP2 Hessian; deprecated post 5.0) 
  Lucas Lang             : DCDCAS, Hyperfine gauge corrections, ICE-SOC+SSC
  Marvin Lechner         : AUTO-CI (C++ implementation), FIC-MRCC        
  Spencer Leger          : CASSCF response                               
  Dagmar Lenk            : GEPOL surface, SMD, ORCA-2-JSON               
  Dimitrios Liakos       : Extrapolation schemes; Compound Job, Property file
  Dimitrios Manganas     : Further ROCIS development; embedding schemes. LFT, Crystal Embedding 
  Dimitrios Pantazis     : SARC Basis sets                               
  Anastasios Papadopoulos: AUTO-CI, single reference methods and gradients 
  Taras Petrenko         : pre 6.0 DFT Hessian and TD-DFT gradient,  ECA, NRVS 
  Petra Pikulova         : Analytic Raman intensities                    
  Peter Pinski           : DLPNO-MP2, DLPNO-MP2 Gradient                 
  Shashank Vittal Rao    : ES-AILFT, MagRelax                            
  Christoph Reimann      : Effective Core Potentials                     
  Marius Retegan         : Local ZFS, SOC                                
  Christoph Riplinger    : Optimizer, TS searches, QM/MM, DLPNO-CCSD(T), (RO)-DLPNO pert. Triples 
  Michael Roemelt        : Original ROCIS implementation, recursive CI coupling coefficients
  Masaaki Saitow         : Open-shell DLPNO-CCSD energy and density      
  Barbara Sandhoefer     : DKH picture change effects                    
  Yorick L. A. Schmerwitz: GMF and freeze-and-release deltaSCF, NEB S-IDPP initial path                    
  Kantharuban Sivalingam : CASSCF convergence/infrastructure, NEVPT2, NEVPT3, NEVPT4(SD), FIC-MRCI and CEPA variants
  Bernardo de Souza      : ESD, SOC TD-DFT                               
  Georgi L. Stoychev     : AutoAux, RI-MP2 NMR, DLPNO-MP2 response, X2C  
  Van Anh Tran           : RI-MP2 g-tensors                              
  Willem Van den Heuvel  : Paramagnetic NMR                              
  Zikuan Wang            : NOTCH, Electric field optimization            
  Frank Wennmohs         : Technical directorship and infrastructure     
  Hang Xu                : AUTO-CI-Response properties                   
                                                                         
[FACCTs GmbH]                                                            
  Markus Bursch, Nicolas Foglia, Miquel Garcia-Rates, Ingolf Harden, Hagen Neugebauer, Anastasios Papadopoulos, 
  Christoph Riplinger, Bernardo de Souza, Georgi L. Stoychev                                                    
                                                                 
  APM, various basis sets, CI-OPT, improved COSX, DLPNO-Multilevel,           
  DOCKER, DRACO, updates on ESD, Fragmentator, GOAT, IRC, LR-CPCM, L-BFGS, MBIS, meta-GGA TD-DFT gradient, ML-optimized integration grids, 
  MM, NACMEs, nearIR, NEB, NEB-TS, NL-DFT gradient (VV10), 2- and 3-layer-ONIOM, interface openCOSMO-RS, QMMM,   
  Crystal-QMMM, RESP, rigid body optimization, SF, symmetry and pop. for TD-DFT, various functionals, SOLVATOR                                   
                                                                         
[Other institutions]                                                     
  V. Asgeirsson          : NEB                                           
  Christoph Bannwarth    : sTDA-DFT, sTD-DFT, PBEh-3c, B97-3c, D3        
  Giovanni Bistoni       : ETS/NOCV, ADLD/ADEX, COVALED                  
  Martin Brehm           : Molecular dynamics                            
  Ronald Cardenas        : ETS/NOCV                                      
  Martina Colucci        : COVALED                                       
  Sebastian Ehlert       : rSCAN, r2SCAN, r2SCAN-3c, D4, dhf basis sets  
  Marvin Friede          : D4 for Fr, Ra, Ac-Lr                          
  Lars Goerigk           : TD-DFT with DH, B97 family of functionals     
  Stefan Grimme          : VdW corrections, initial TS optimization, DFT functionals, gCP, sTDA/sTD-DF 
  Waldemar Hujo          : DFT-NL                                        
  H. Jonsson             : NEB                                           
  Holger Kruse           : gCP                                           
  Marcel Mueller         : wB97X-3c, vDZP basis set                      
  Hagen Neugebauer       : wr2SCAN, Native XTB                           
  Gianluca Regni         : ADLD/ADEX                                     
  Tobias Risthaus        : pre 6.0 range-separated hybrid DFT and stability analysis
  Lukas Wittmann         : regularized MP2, r2SCAN double-hybrids, wr2SCAN        
                                                                         
We gratefully acknowledge several colleagues who have allowed us to      
interface, adapt or use parts of their codes:                            
  Ed Valeev, F. Pavosevic, A. Kumar             : LibInt (2-el integral package), F12 methods 
  Garnet Chan, S. Sharma, J. Yang, R. Olivares  : DMRG                   
  Ulf Ekstrom                                   : XCFun DFT Library      
  Mihaly Kallay                                 : mrcc  (arbitrary order and MRCC methods)
  Frank Weinhold                                : gennbo (NPA and NBO analysis)           
  Simon Mueller                                 : openCOSMO-RS                            
  Christopher J. Cramer and Donald G. Truhlar   : smd solvation model                     
  S Lehtola, MJT Oliveira, MAL Marques          : LibXC Library                           
  Liviu Ungur et al                             : ANISO software                          


 Your calculation uses the libint2 library for the computation of 2-el integrals
 For citations please refer to: http://libint.valeyev.net

 Your ORCA version has been built with support for libXC version: 7.0.0
 For citations please refer to: https://libxc.gitlab.io

 This ORCA versions uses:
   CBLAS   interface :  Fast vector & matrix operations
   LAPACKE interface :  Fast linear algebra routines
   SCALAPACK package :  Parallel linear algebra routines
   Shared memory     :  Shared parallel matrices
   BLAS/LAPACK       :  OpenBLAS 0.3.29  USE64BITINT DYNAMIC_ARCH NO_AFFINITY SkylakeX SINGLE_THREADED
        Core in use  :  SkylakeX
   Copyright (c) 2011-2014, The OpenBLAS Project


  ***********************************
  * Starting time: Wed Jan 28 12:01:01 2026
  * Host name:     bp1-compute040.data.bp.acrc.priv
  * Process ID:    1901334
  * Working dir.:  /user/work/kp22738/Diss/Orca/pyruvic_anion/dyson_orbitals/0_wat/15365186_d0_freq_0_wat
  ***********************************

NOTE: MaxCore=8000 MB was set to SCF,MP2,MDCI,CIPSI,MRCI,RASCI and CIS
      => If you want to overwrite this, your respective input block should be placed after the MaxCore statement
Using LibXC functional ID 471 : wB97X-D range-separated functional
[ 1]  J.-D. Chai and M. Head-Gordon.,  Phys. Chem. Chem. Phys. 10, 6615-6620 (2008)
Using LibXC functional ID 471 : wB97X-D range-separated functional
[ 1]  J.-D. Chai and M. Head-Gordon.,  Phys. Chem. Chem. Phys. 10, 6615-6620 (2008)
Your calculation utilizes LibXC
by S. Lehtola, C. Steigemann, M. J. T. Oliveira & M. A. L. Marques
Please cite in your paper:
Lehtola, S.; Steigemann, C.; Oliveira, M.J.T.; Marques, M. A. L. Software X, 7, (2018), 1.
   

================================================================================

----- Orbital basis set information -----
Your calculation utilizes the basis: aug-cc-pVDZ 
    H, B-Ne : Obtained from the ccRepo (grant-hill.group.shef.ac.uk/ccrepo) Feb. 2017
              R. A. Kendall, T. H. Dunning, Jr., R. J. Harrison, J. Chem. Phys. 96, 6796 (1992)
         He : Obtained from the ccRepo (grant-hill.group.shef.ac.uk/ccrepo) Feb. 2017
              D. E. Woon, T. H. Dunning, Jr., J. Chem. Phys. 100, 2975 (1994)
  Li-Be, Na : Obtained from the ccRepo (grant-hill.group.shef.ac.uk/ccrepo) Feb. 2017
              B. P. Prascher, D. E. Woon, K. A. Peterson, T. H. Dunning, Jr., A. K. Wilson, Theor. Chem. Acc. 128, 69 (2011)
         Mg : Obtained from the Peterson Research Group Website (tyr0.chem.wsu.edu/~kipeters) Feb. 2017
              B. P. Prascher, D. E. Woon, K. A. Peterson, T. H. Dunning, Jr., A. K. Wilson, Theor. Chem. Acc. 128, 69 (2011)
      Al-Ar : Obtained from the ccRepo (grant-hill.group.shef.ac.uk/ccrepo) Feb. 2017
              D. E. Woon, T. H. Dunning, Jr., J. Chem. Phys. 98, 1358 (1993)
      Sc-Zn : Obtained from the ccRepo (grant-hill.group.shef.ac.uk/ccrepo) Feb. 2017
              N. B. Balabanov, K. A. Peterson, J. Chem. Phys. 123, 064107 (2005)
              N. B. Balabanov, K. A. Peterson, J. Chem. Phys. 125, 074110 (2006)
      Ga-Kr : Obtained from the ccRepo (grant-hill.group.shef.ac.uk/ccrepo) Feb. 2017
              A. K. Wilson, D. E. Woon, K. A. Peterson, T. H. Dunning, Jr., J. Chem. Phys. 110, 7667 (1999)

================================================================================
                                        WARNINGS
                       Please study these warnings very carefully!
================================================================================


WARNING: your system is open-shell and RHF/RKS was chosen
  ===> : WILL SWITCH to UHF/UKS


================================================================================
                                       INPUT FILE
================================================================================
NAME = d0_freq_0_wat.inp
|  1> ! aug-cc-pVDZ TightSCF DEFGRID3 Engrad ANFREQ
|  2> 
|  3> %PAL NPROCS 8 END
|  4> 
|  5> %maxcore 8000
|  6> 
|  7> %method
|  8> method dft
|  9> functional hyb_gga_xc_wb97x_d
| 10> end
| 11> 
| 12> * xyz -1 2
| 13>   C     -0.632075   -0.215377   -0.000041
| 14>   C      0.724963    0.275601   -0.000006
| 15>   C     -1.782459    0.756586   -0.000045
| 16>   H     -2.421252    0.599441    0.886501
| 17>   H     -2.421344    0.599396   -0.886518
| 18>   H     -1.415701    1.790817   -0.000074
| 19>   O     -0.837573   -1.488634    0.000082
| 20>   O      1.122316    1.451584   -0.000009
| 21>   O      1.635045   -0.757426    0.000019
| 22>   H      1.036465   -1.534650   -0.000046
| 23> *
| 24> 
| 25>                          ****END OF INPUT****
================================================================================

                     *******************************
                     * Energy+Gradient Calculation *
                     *******************************

---------------------------------
CARTESIAN COORDINATES (ANGSTROEM)
---------------------------------
  C     -0.632075   -0.215377   -0.000041
  C      0.724963    0.275601   -0.000006
  C     -1.782459    0.756586   -0.000045
  H     -2.421252    0.599441    0.886501
  H     -2.421344    0.599396   -0.886518
  H     -1.415701    1.790817   -0.000074
  O     -0.837573   -1.488634    0.000082
  O      1.122316    1.451584   -0.000009
  O      1.635045   -0.757426    0.000019
  H      1.036465   -1.534650   -0.000046

----------------------------
CARTESIAN COORDINATES (A.U.)
----------------------------
  NO LB      ZA    FRAG     MASS         X           Y           Z
   0 C     6.0000    0    12.011   -1.194449   -0.407004   -0.000077
   1 C     6.0000    0    12.011    1.369982    0.520810   -0.000011
   2 C     6.0000    0    12.011   -3.368359    1.429740   -0.000085
   3 H     1.0000    0     1.008   -4.575503    1.132779    1.675244
   4 H     1.0000    0     1.008   -4.575677    1.132694   -1.675276
   5 H     1.0000    0     1.008   -2.675287    3.384154   -0.000140
   6 O     8.0000    0    15.999   -1.582784   -2.813111    0.000155
   7 O     8.0000    0    15.999    2.120870    2.743096   -0.000017
   8 O     8.0000    0    15.999    3.089787   -1.431328    0.000036
   9 H     1.0000    0     1.008    1.958635   -2.900068   -0.000087

--------------------------------
INTERNAL COORDINATES (ANGSTROEM)
--------------------------------
 C      0   0   0     0.000000000000     0.00000000     0.00000000
 C      1   0   0     1.443125611703     0.00000000     0.00000000
 C      1   2   0     1.506019727906   119.91524408     0.00000000
 H      3   1   2     1.103954191980   110.49514023   239.01990719
 H      3   1   2     1.103955216055   110.49766591   120.98971818
 H      3   1   2     1.097335496904   110.66909508     0.00000000
 O      1   2   3     1.289733627995   119.05840778   180.00764715
 O      2   1   3     1.241299892414   128.55978680     0.00000000
 O      2   1   3     1.376733100524   111.48940417   179.99880495
 H      9   2   1     0.981007220565   101.01870071     0.00000000

---------------------------
INTERNAL COORDINATES (A.U.)
---------------------------
 C      0   0   0     0.000000000000     0.00000000     0.00000000
 C      1   0   0     2.727112182966     0.00000000     0.00000000
 C      1   2   0     2.845964838024   119.91524408     0.00000000
 H      3   1   2     2.086171087236   110.49514023   239.01990719
 H      3   1   2     2.086173022457   110.49766591   120.98971818
 H      3   1   2     2.073663566179   110.66909508     0.00000000
 O      1   2   3     2.437243342620   119.05840778   180.00764715
 O      2   1   3     2.345716846728   128.55978680     0.00000000
 O      2   1   3     2.601648519494   111.48940417   179.99880495
 H      9   2   1     1.853834982267   101.01870071     0.00000000

---------------------
BASIS SET INFORMATION
---------------------
There are 3 groups of distinct atoms

 Group   1 Type C   : 18s5p2d contracted to 4s3p2d pattern {8811/311/11}
 Group   2 Type H   : 5s2p contracted to 3s2p pattern {311/11}
 Group   3 Type O   : 18s5p2d contracted to 4s3p2d pattern {8811/311/11}

Atom   0C    basis set group =>   1
Atom   1C    basis set group =>   1
Atom   2C    basis set group =>   1
Atom   3H    basis set group =>   2
Atom   4H    basis set group =>   2
Atom   5H    basis set group =>   2
Atom   6O    basis set group =>   3
Atom   7O    basis set group =>   3
Atom   8O    basis set group =>   3
Atom   9H    basis set group =>   2


           ************************************************************
           *        Program running with 8 parallel MPI-processes     *
           *              working on a common directory               *
           ************************************************************
------------------------------------------------------------------------------
                             ORCA STARTUP CALCULATIONS
------------------------------------------------------------------------------
------------------------------------------------------------------------------
                   ___                                                        
                  /   \      - P O W E R E D   B Y -                         
                 /     \                                                     
                 |  |  |   _    _      __       _____    __    __             
                 |  |  |  | |  | |    /  \     |  _  \  |  |  /  |          
                  \  \/   | |  | |   /    \    | | | |  |  | /  /          
                 / \  \   | |__| |  /  /\  \   | |_| |  |  |/  /          
                |  |  |   |  __  | /  /__\  \  |    /   |      \           
                |  |  |   | |  | | |   __   |  |    \   |  |\   \          
                \     /   | |  | | |  |  |  |  | |\  \  |  | \   \       
                 \___/    |_|  |_| |__|  |__|  |_| \__\ |__|  \__/        
                                                                              
                      - O R C A' S   B I G   F R I E N D -                    
                                      &                                       
                       - I N T E G R A L  F E E D E R -                       
                                                                              
 v1 FN, 2020, v2 2021, v3 2022-2024                                           
------------------------------------------------------------------------------


----------------------
SHARK INTEGRAL PACKAGE
----------------------

Number of atoms                             ...     10
Number of basis functions                   ...    210
Number of shells                            ...    110
Maximum angular momentum                    ...      2
Integral batch strategy                     ... SHARK/LIBINT Hybrid
RI-J (if used) integral strategy            ... SPLIT-RIJ (Revised 2003 algorithm where possible)
Printlevel                                  ...      1
Contraction scheme used                     ... PARTIAL GENERAL contraction
Prescreening option                         ... SCHWARTZ
   Thresh                                   ... 2.500e-11
   Tcut                                     ... 2.500e-12
   Tpresel                                  ... 2.500e-12 
Coulomb Range Separation                    ... NOT USED
Exchange Range Separation                   ... Long Range
   Mu parameter                             ... 2.000e-01
   Scaling (regular/separated)              ... 2.220e-01 7.780e-01
Robust (split-)RI terms used:
  metric    (central integrals)             ... YES
  density   (r.h.s.  integrals)             ... YES
  potential (l.h.s.  integrals)             ... YES
Multipole approximations                    ... NOT USED
Finite Nucleus Model                        ... NOT USED
CABS basis                                  ... NOT available
Auxiliary Coulomb fitting basis             ... NOT available
Auxiliary J/K fitting basis                 ... NOT available
Auxiliary Correlation fitting basis         ... NOT available
Auxiliary 'external' fitting basis          ... NOT available

Checking pre-screening integrals            ... done (  0.0 sec) Dimension = 110
Save PGC pre-screening integrals            ... done (  0.0 sec) Dimension = 110
Calculate PGC overlap integrals             ... done (  0.1 sec) Dimension = 74
Calculating pre-screening integrals (ORCA)  ... done (  0.1 sec) Dimension = 74
Shell pair information
Shell pair cut-off parameter TPreSel        ...   2.5e-12
Total number of shell pairs                 ...      6105
Shell pairs after pre-screening             ...      5248
Total number of primitive shell pairs       ...      8545
Primitive shell pairs kept                  ...      6882
          la=0 lb=0:   1891 shell pairs
          la=1 lb=0:   1785 shell pairs
          la=1 lb=1:    351 shell pairs
          la=2 lb=0:    831 shell pairs
          la=2 lb=1:    312 shell pairs
          la=2 lb=2:     78 shell pairs

Checking whether 4 symmetric matrices of dimension 210 fit in memory
:Max Core in MB      =   8000.00
 MB in use           =      6.96
 MB left             =   7993.04
 MB needed           =      0.68
 Data fit in memory  = YES
Calculating Nuclear repulsion               ... done (  0.0 sec) ENN=    228.280983742235 Eh

Diagonalization of the overlap matrix:
Smallest eigenvalue                        ... 4.185e-05
Time for diagonalization                   ...    0.006 sec
Threshold for overlap eigenvalues          ... 1.000e-07
Number of eigenvalues below threshold      ... 0
Time for construction of square roots      ...    0.022 sec
Total time needed                          ...    0.040 sec

-------------------
DFT GRID GENERATION
-------------------

General Integration Accuracy     IntAcc      ... 4.959
Radial Grid Type                 RadialGrid  ... OptM3 with GC (2021)
Angular Grid (max. ang.)         AngularGrid ... 6 (Lebedev-590)
Angular grid pruning method      GridPruning ... 4 (adaptive)
Weight generation scheme         WeightScheme... mBecke (2022)
Basis function cutoff            BFCut       ... 1.0000e-11
Integration weight cutoff        WCut        ... 1.0000e-14
Partially contracted basis set               ... off
Rotationally invariant grid construction     ... off
Angular grids for H and He will be reduced by one unit
Diffuse basis detected: some atoms will have their outermost
                        angular grid increased by 1.

Total number of grid points                  ...   128396
Total number of batches                      ...     2011
Average number of points per batch           ...       63
Average number of grid points per atom       ...    12840

---------------------
SHARK GRID GENERATION
---------------------

General Integration Accuracy     IntAcc      ... 4.959
Radial Grid Type                 RadialGrid  ... OptM3 with GC (2021)
Angular Grid (max. ang.)         AngularGrid ... 6 (Lebedev-590)
Angular grid pruning method      GridPruning ... 4 (adaptive)
Weight generation scheme         WeightScheme... mBecke (2022)
Basis function cutoff            BFCut       ... 1.0000e-11
Integration weight cutoff        WCut        ... 1.0000e-14
Partially contracted basis set               ... off
Rotationally invariant grid construction     ... off
Angular grids for H and He will be reduced by one unit
Diffuse basis detected: some atoms will have their outermost
                        angular grid increased by 1.
Steep s-basis detected: some atoms will have their radial
                        grid points doubled.

Total number of grid points                  ...   217811
Total number of batches                      ...     3407
Average number of points per batch           ...       63
Average number of grid points per atom       ...    21781
Grids setup in   7.9 sec
Initializing property integral containers    ... done (  0.0 sec)

SHARK setup successfully completed in   9.1 seconds

Maximum memory used throughout the entire STARTUP-calculation: 51.8 MB


           ************************************************************
           *        Program running with 8 parallel MPI-processes     *
           *              working on a common directory               *
           ************************************************************
-------------------------------------------------------------------------------
                                 ORCA GUESS
                   Start orbitals & Density for SCF / CASSCF
-------------------------------------------------------------------------------

------------
SCF SETTINGS
------------
Hamiltonian:
 Density Functional     Method          .... DFT(GTOs)
  Functional kind                       .... Exchange-Correlation
  Functional name                       .... wB97X-D range-separated functional
  Functional family                     .... Hybrid GGA
  Functional refs                              
    [ 0] J.-D. Chai and M. Head-Gordon.,  Phys. Chem. Chem. Phys. 10, 6615-6620 (2008), doi: 10.1039/B810189B
  Fraction of HF Exchange (short range) .... 0.2220
  Fraction of HF Exchange ( int64 range )  .... 1.0000
  Range separation parameter mu         .... 0.2000
  Functional external parameters        .... 18
    Parameter  0 _cx0       =  7.779640e-01 : u^0 coefficient for exchange
    Parameter  1 _cx1       =  6.611600e-01 : u^1 coefficient for exchange
    Parameter  2 _cx2       =  5.745410e-01 : u^2 coefficient for exchange
    Parameter  3 _cx3       = -5.256710e+00 : u^3 coefficient for exchange
    Parameter  4 _cx4       =  1.163860e+01 : u^4 coefficient for exchange
    Parameter  5 _css0      =  1.000000e+00 : u^0 coefficient for same-spin correlation
    Parameter  6 _css1      = -6.905390e+00 : u^1 coefficient for same-spin correlation
    Parameter  7 _css2      =  3.133430e+01 : u^2 coefficient for same-spin correlation
    Parameter  8 _css3      = -5.105330e+01 : u^3 coefficient for same-spin correlation
    Parameter  9 _css4      =  2.644230e+01 : u^4 coefficient for same-spin correlation
    Parameter 10 _cos0      =  1.000000e+00 : u^0 coefficient for opposite-spin correlation
    Parameter 11 _cos1      =  1.794130e+00 : u^1 coefficient for opposite-spin correlation
    Parameter 12 _cos2      = -1.204770e+01 : u^2 coefficient for opposite-spin correlation
    Parameter 13 _cos3      =  1.408470e+01 : u^3 coefficient for opposite-spin correlation
    Parameter 14 _cos4      = -8.508090e+00 : u^4 coefficient for opposite-spin correlation
    Parameter 15 _alpha     =  1.000000e+00 : fraction of HF exchange
    Parameter 16 _beta      = -7.779640e-01 : fraction of short-range exchange
    Parameter 17 _omega     =  2.000000e-01 : range-separation constant
 Long-range corrected/Screened/Range-Separated Hybrid DFT is turned on
   Amount of maximum screened exact exchange              ....  0.777964
   Range separation parameter mu (erf(mu*r12)/r12)        ....  0.200000


General Settings:
 Integral files         IntName         .... d0_freq_0_wat
 Hartree-Fock type      HFTyp           .... UHF
 Total Charge           Charge          ....   -1
 Multiplicity           Mult            ....    2
 Number of Electrons    NEL             ....   47
 Basis Dimension        Dim             ....  174
 Nuclear Repulsion      ENuc            ....    228.2809837422 Eh

Convergence Acceleration:
 AO-DIIS                CNVDIIS         .... on
   Start iteration      DIISMaxIt       ....    12
   Startup error        DIISStart       ....  0.200000
   # of expansion vecs  DIISMaxEq       ....     5
   Bias factor          DIISBfac        ....   1.050
   Max. coefficient     DIISMaxC        ....  10.000
 MO-DIIS                CNVKDIIS        .... off
 Trust-Rad. Augm. Hess. CNVTRAH         .... auto
   Auto Start mean grad. ratio tolernc. ....  1.125000
   Auto Start start iteration           ....    50
   Auto Start num. interpolation iter.  ....    10
   Max. Number of Micro iterations      ....    24
   Max. Number of Macro iterations      .... Maxiter - #DIIS iter
   Number of Davidson start vectors     ....     2
   Converg. threshold    (grad. norm)   ....   1.000e-05
   Grad. Scal. Fac. for Micro threshold ....   0.100
   Minimum threshold for Micro iter.    ....   1.000e-02
   NR start threshold (gradient norm)   ....   1.000e-04
   Initial trust radius                 ....   0.400
   Minimum AH scaling param. (alpha)    ....   1.000
   Maximum AH scaling param. (alpha)    .... 1000.000
   Quad. conv. algorithm                .... NR
   White noise on init. David. guess    .... on
   Maximum white noise                  ....   0.010
   Pseudo random numbers                .... off
   Inactive MOs                         .... canonical
   Orbital update algorithm             .... Taylor
   Preconditioner                       .... Diag
   Full preconditioner red. dimension   ....   250
 SOSCF                 CNVSOSCF           .... on
   Start iteration     SOSCFMaxIt         ....   150
   Startup grad/error  SOSCFStart         ....  0.003300
   Hessian update      SOSCFHessUp        .... L-BFGS
   Autom. constraints  SOSCFAutoConstrain .... off
 Level Shifting         CNVShift        .... on
   Level shift para.    LevelShift      ....    0.2500
   Turn off err/grad.   ShiftErr        ....    0.0010
 Zerner damping         CNVZerner       .... off
 Static damping         CNVDamp         .... on
   Fraction old density DampFac         ....    0.7000
   Max. Damping (<1)    DampMax         ....    0.9800
   Min. Damping (>=0)   DampMin         ....    0.0000
   Turn off err/grad.   DampErr         ....    0.1000

SCF Procedure:
 Maximum # iterations   MaxIter         ....   125
 SCF integral mode      SCFMode         .... Direct
   Integral package                     .... SHARK and LIBINT hybrid scheme
 Reset frequency        DirectResetFreq ....    20
 Integral Threshold     Thresh          ....  2.500e-11 Eh
 Primitive CutOff       TCut            ....  2.500e-12 Eh

Convergence Tolerance:
 Convergence Check Mode ConvCheckMode   .... Total+1el-Energy
 Convergence forced     ConvForced      .... 0
 Energy Change          TolE            ....  1.000e-08 Eh
 1-El. energy change                    ....  1.000e-05 Eh
 Orbital Gradient       TolG            ....  1.000e-05
 Orbital Rotation angle TolX            ....  1.000e-05
 DIIS Error             TolErr          ....  5.000e-07

------------------------------
INITIAL GUESS: MODEL POTENTIAL
------------------------------
Loading Hartree-Fock densities                     ... done
Calculating cut-offs                               ... done
Initializing the effective Hamiltonian             ... done
Setting up the integral package (SHARK)            ... done
Starting the Coulomb interaction                   ... done (   0.4 sec)
Making the grid                                    ... done (   0.2 sec)
Mapping shells                                     ... done
Starting the XC term evaluation                    ... done (   0.2 sec)
  promolecular density results
     # of electrons  =     45.997777632
     EX+EC           =    -29.730021498
Transforming the Hamiltonian                       ... done (   0.0 sec)
Diagonalizing the Hamiltonian                      ... done (   0.0 sec)
Back transforming the eigenvectors                 ... done (   0.0 sec)
Now organizing SCF variables                       ... done
                      ------------------
                      INITIAL GUESS DONE (   1.0 sec)
                      ------------------
             **** ENERGY FILE WAS UPDATED (d0_freq_0_wat.en.tmp) ****
Finished Guess after   1.6 sec
Maximum memory used throughout the entire GUESS-calculation: 9.9 MB


           ************************************************************
           *        Program running with 8 parallel MPI-processes     *
           *              working on a common directory               *
           ************************************************************

-------------------------------------------------------------------------------------------
                                      ORCA LEAN-SCF
                              memory conserving SCF solver
-------------------------------------------------------------------------------------------

----------------------------------------D-I-I-S--------------------------------------------
Iteration    Energy (Eh)           Delta-E    RMSDP     MaxDP     DIISErr   Damp  Time(sec)
-------------------------------------------------------------------------------------------
               ***  Starting incremental Fock matrix formation  ***
    1    -342.3404410116201007     0.00e+00  3.55e-03  5.02e-02  4.39e-02  0.700   4.6
    2    -342.3547722113249847    -1.43e-02  2.73e-03  3.98e-02  3.04e-02  0.700   4.3
                               ***Turning on AO-DIIS***
    3    -342.3625747360923697    -7.80e-03  1.74e-03  2.05e-02  2.08e-02  0.700   4.6
    4    -342.3676189842399253    -5.04e-03  4.20e-03  4.54e-02  1.46e-02  0.000   4.2
                              *** Initializing SOSCF ***
---------------------------------------S-O-S-C-F--------------------------------------
Iteration    Energy (Eh)           Delta-E    RMSDP     MaxDP     MaxGrad    Time(sec)
--------------------------------------------------------------------------------------
    5    -342.3797738448423615    -1.22e-02  5.26e-04  7.32e-03  2.88e-03     4.2
               *** Restarting incremental Fock matrix formation ***
    6    -342.3799383861318120    -1.65e-04  6.76e-04  1.14e-02  1.87e-03     4.2
    7    -342.3799997154560515    -6.13e-05  7.61e-04  1.22e-02  1.10e-03     3.8
    8    -342.3800195703300915    -1.99e-05  7.98e-05  7.14e-04  6.39e-04     4.4
    9    -342.3800246478680265    -5.08e-06  9.15e-05  1.32e-03  1.99e-04     3.8
   10    -342.3800256551639905    -1.01e-06  1.82e-05  2.53e-04  7.30e-05     3.5
   11    -342.3800258674797306    -2.12e-07  1.08e-05  1.27e-04  5.02e-05     3.8
   12    -342.3800259207595218    -5.33e-08  7.40e-06  8.16e-05  1.55e-05     3.9
   13    -342.3800259323513728    -1.16e-08  6.89e-06  1.02e-04  9.03e-06     3.3
   14    -342.3800259349651469    -2.61e-09  7.90e-06  1.00e-04  2.28e-06     3.4
                 **** Energy Check signals convergence ****

               *****************************************************
               *                     SUCCESS                       *
               *           SCF CONVERGED AFTER  14 CYCLES          *
               *****************************************************

             **** ENERGY FILE WAS UPDATED (d0_freq_0_wat.en.tmp) ****

----------------
TOTAL SCF ENERGY
----------------

Total Energy       :       -342.38002593474084 Eh           -9316.63415 eV

Components:
Nuclear Repulsion  :        228.28098374223524 Eh            6211.84137 eV
Electronic Energy  :       -570.66100967697605 Eh          -15528.47553 eV
One Electron Energy:       -930.00293625795234 Eh          -25306.66646 eV
Two Electron Energy:        359.34192658097629 Eh            9778.19094 eV

Virial components:
Potential Energy   :       -682.73899954068486 Eh          -18578.27268 eV
Kinetic Energy     :        340.35897360594402 Eh            9261.63852 eV
Virial Ratio       :          2.00593800218453

DFT components:
N(Alpha)           :       24.000020380814 electrons
N(Beta)            :       23.000067186087 electrons
N(Total)           :       47.000087566901 electrons
E(XC)              :      -30.379310227970 Eh       

---------------
SCF CONVERGENCE
---------------

  Last Energy change         ...    2.6138e-09  Tolerance :   1.0000e-08
  Last MAX-Density change    ...    1.0011e-04  Tolerance :   1.0000e-07
  Last RMS-Density change    ...    7.9027e-06  Tolerance :   5.0000e-09
  Last DIIS Error            ...    2.8810e-03  Tolerance :   5.0000e-07
  Last Orbital Gradient      ...    2.2788e-06  Tolerance :   1.0000e-05
  Last Orbital Rotation      ...    8.4720e-06  Tolerance :   1.0000e-05


----------------------
UHF SPIN CONTAMINATION
----------------------

Warning: in a DFT calculation there is little theoretical justification to 
         calculate <S**2> as in Hartree-Fock theory. We will do it anyways
         but you should keep in mind that the values have only limited relevance

Expectation value of <S**2>     :     0.755518
Ideal value S*(S+1) for S=0.5   :     0.750000
Deviation                       :     0.005518

----------------
ORBITAL ENERGIES
----------------
                 SPIN UP ORBITALS
  NO   OCC          E(Eh)            E(eV) 
   0   1.0000     -19.109310      -519.9908 
   1   1.0000     -19.053186      -518.4636 
   2   1.0000     -19.051554      -518.4191 
   3   1.0000     -10.213141      -277.9137 
   4   1.0000     -10.159691      -276.4592 
   5   1.0000     -10.133796      -275.7546 
   6   1.0000      -0.999824       -27.2066 
   7   1.0000      -0.917792       -24.9744 
   8   1.0000      -0.905110       -24.6293 
   9   1.0000      -0.671718       -18.2784 
  10   1.0000      -0.567904       -15.4534 
  11   1.0000      -0.474109       -12.9012 
  12   1.0000      -0.399693       -10.8762 
  13   1.0000      -0.366706        -9.9786 
  14   1.0000      -0.358414        -9.7529 
  15   1.0000      -0.331870        -9.0306 
  16   1.0000      -0.323271        -8.7966 
  17   1.0000      -0.297059        -8.0834 
  18   1.0000      -0.273558        -7.4439 
  19   1.0000      -0.248020        -6.7490 
  20   1.0000      -0.217094        -5.9074 
  21   1.0000      -0.196822        -5.3558 
  22   1.0000      -0.142594        -3.8802 
  23   1.0000      -0.043502        -1.1837 
  24   0.0000       0.140963         3.8358 
  25   0.0000       0.159031         4.3275 
  26   0.0000       0.163807         4.4574 
  27   0.0000       0.168699         4.5905 
  28   0.0000       0.213020         5.7966 
  29   0.0000       0.215678         5.8689 
  30   0.0000       0.245666         6.6849 
  31   0.0000       0.251833         6.8527 
  32   0.0000       0.264556         7.1989 
  33   0.0000       0.267644         7.2830 
  34   0.0000       0.277359         7.5473 

                 SPIN DOWN ORBITALS
  NO   OCC          E(Eh)            E(eV) 
   0   1.0000     -19.108671      -519.9734 
   1   1.0000     -19.048575      -518.3381 
   2   1.0000     -19.044384      -518.2240 
   3   1.0000     -10.211815      -277.8776 
   4   1.0000     -10.154931      -276.3297 
   5   1.0000     -10.134283      -275.7679 
   6   1.0000      -0.995239       -27.0818 
   7   1.0000      -0.906750       -24.6739 
   8   1.0000      -0.892035       -24.2735 
   9   1.0000      -0.664254       -18.0753 
  10   1.0000      -0.552236       -15.0271 
  11   1.0000      -0.471188       -12.8217 
  12   1.0000      -0.392864       -10.6904 
  13   1.0000      -0.351514        -9.5652 
  14   1.0000      -0.349191        -9.5020 
  15   1.0000      -0.328767        -8.9462 
  16   1.0000      -0.313316        -8.5258 
  17   1.0000      -0.290616        -7.9081 
  18   1.0000      -0.269496        -7.3334 
  19   1.0000      -0.205750        -5.5987 
  20   1.0000      -0.193359        -5.2616 
  21   1.0000      -0.190035        -5.1711 
  22   1.0000      -0.134678        -3.6648 
  23   0.0000       0.151514         4.1229 
  24   0.0000       0.165113         4.4930 
  25   0.0000       0.172353         4.6900 
  26   0.0000       0.173225         4.7137 
  27   0.0000       0.200817         5.4645 
  28   0.0000       0.214849         5.8463 
  29   0.0000       0.218678         5.9505 
  30   0.0000       0.248331         6.7574 
  31   0.0000       0.255098         6.9416 
  32   0.0000       0.268930         7.3180 
  33   0.0000       0.269437         7.3318 
*Only the first 10 virtual orbitals were printed.

                    ********************************
                    * MULLIKEN POPULATION ANALYSIS *
                    ********************************

--------------------------------------------
MULLIKEN ATOMIC CHARGES AND SPIN POPULATIONS
--------------------------------------------
   0 C :    0.073452    0.432219
   1 C :    0.800213    0.104020
   2 C :    0.614209   -0.060331
   3 H :   -0.116749    0.021512
   4 H :   -0.116741    0.021499
   5 H :   -0.268710   -0.000844
   6 O :   -0.888770    0.286662
   7 O :   -0.684437    0.176690
   8 O :   -0.554644    0.020846
   9 H :    0.142178   -0.002273
Sum of atomic charges         :   -1.0000000
Sum of atomic spin populations:    1.0000000

-----------------------------------------------------
MULLIKEN REDUCED ORBITAL CHARGES AND SPIN POPULATIONS
-----------------------------------------------------
CHARGE
  0 C s       :     3.086865  s :     3.086865
      pz      :     0.972266  p :     2.468126
      px      :     0.737547
      py      :     0.758312
      dz2     :     0.015690  d :     0.371558
      dxz     :     0.071777
      dyz     :     0.040147
      dx2y2   :     0.150010
      dxy     :     0.093935

  1 C s       :     3.057798  s :     3.057798
      pz      :     0.806943  p :     1.976097
      px      :     0.574718
      py      :     0.594436
      dz2     :     0.004175  d :     0.165893
      dxz     :     0.031814
      dyz     :     0.057836
      dx2y2   :     0.051186
      dxy     :     0.020881

  2 C s       :     2.969882  s :     2.969882
      pz      :     0.781777  p :     2.440105
      px      :     1.018789
      py      :     0.639540
      dz2     :    -0.008566  d :    -0.024196
      dxz     :    -0.007640
      dyz     :     0.006091
      dx2y2   :     0.009020
      dxy     :    -0.023101

  3 H s       :     1.116828  s :     1.116828
      pz      :     0.004464  p :    -0.000079
      px      :    -0.004674
      py      :     0.000131

  4 H s       :     1.116834  s :     1.116834
      pz      :     0.004454  p :    -0.000092
      px      :    -0.004676
      py      :     0.000130

  5 H s       :     1.257374  s :     1.257374
      pz      :    -0.009966  p :     0.011336
      px      :     0.023929
      py      :    -0.002626

  6 O s       :     4.119551  s :     4.119551
      pz      :     1.601083  p :     4.739259
      px      :     1.848510
      py      :     1.289667
      dz2     :     0.001484  d :     0.029960
      dxz     :     0.000436
      dyz     :     0.013197
      dx2y2   :     0.007587
      dxy     :     0.007256

  7 O s       :     4.028015  s :     4.028015
      pz      :     1.554757  p :     4.624157
      px      :     1.766968
      py      :     1.302432
      dz2     :     0.002199  d :     0.032265
      dxz     :     0.001423
      dyz     :     0.013092
      dx2y2   :     0.006495
      dxy     :     0.009056

  8 O s       :     3.971310  s :     3.971310
      pz      :     1.832742  p :     4.566658
      px      :     1.523678
      py      :     1.210238
      dz2     :     0.001067  d :     0.016676
      dxz     :     0.007301
      dyz     :     0.004173
      dx2y2   :     0.003340
      dxy     :     0.000794

  9 H s       :     0.764229  s :     0.764229
      pz      :     0.029938  p :     0.093593
      px      :     0.042374
      py      :     0.021280


SPIN
  0 C s       :     0.019229  s :     0.019229
      pz      :     0.339682  p :     0.388394
      px      :     0.032413
      py      :     0.016299
      dz2     :    -0.000353  d :     0.024596
      dxz     :     0.010153
      dyz     :     0.014990
      dx2y2   :    -0.001769
      dxy     :     0.001575

  1 C s       :    -0.017224  s :    -0.017224
      pz      :     0.114180  p :     0.104899
      px      :    -0.006047
      py      :    -0.003234
      dz2     :    -0.000194  d :     0.016345
      dxz     :     0.018657
      dyz     :     0.000836
      dx2y2   :    -0.001166
      dxy     :    -0.001788

  2 C s       :    -0.023090  s :    -0.023090
      pz      :    -0.007843  p :    -0.041172
      px      :    -0.022986
      py      :    -0.010344
      dz2     :    -0.000418  d :     0.003931
      dxz     :     0.002432
      dyz     :    -0.000118
      dx2y2   :     0.000844
      dxy     :     0.001190

  3 H s       :     0.022076  s :     0.022076
      pz      :     0.000058  p :    -0.000564
      px      :    -0.000872
      py      :     0.000249

  4 H s       :     0.022064  s :     0.022064
      pz      :     0.000058  p :    -0.000565
      px      :    -0.000872
      py      :     0.000250

  5 H s       :    -0.002311  s :    -0.002311
      pz      :     0.000480  p :     0.001467
      px      :     0.000529
      py      :     0.000458

  6 O s       :     0.017529  s :     0.017529
      pz      :     0.271222  p :     0.270799
      px      :     0.002526
      py      :    -0.002949
      dz2     :     0.000093  d :    -0.001666
      dxz     :    -0.000291
      dyz     :    -0.000530
      dx2y2   :    -0.000361
      dxy     :    -0.000578

  7 O s       :     0.005479  s :     0.005479
      pz      :     0.170414  p :     0.172160
      px      :     0.001012
      py      :     0.000735
      dz2     :     0.000098  d :    -0.000949
      dxz     :    -0.000153
      dyz     :    -0.000413
      dx2y2   :    -0.000090
      dxy     :    -0.000392

  8 O s       :     0.000179  s :     0.000179
      pz      :     0.025013  p :     0.020966
      px      :    -0.002699
      py      :    -0.001349
      dz2     :    -0.000027  d :    -0.000298
      dxz     :    -0.000344
      dyz     :     0.000405
      dx2y2   :    -0.000393
      dxy     :     0.000061

  9 H s       :    -0.001284  s :    -0.001284
      pz      :     0.000790  p :    -0.000990
      px      :    -0.001523
      py      :    -0.000256



                     *******************************
                     * LOEWDIN POPULATION ANALYSIS *
                     *******************************

-------------------------------------------
LOEWDIN ATOMIC CHARGES AND SPIN POPULATIONS
-------------------------------------------
   0 C :   -0.438465    0.301047
   1 C :   -0.494344    0.155370
   2 C :    0.107178    0.035267
   3 H :   -0.031001    0.013507
   4 H :   -0.031000    0.013504
   5 H :   -0.034930   -0.001735
   6 O :   -0.067686    0.283861
   7 O :   -0.036831    0.171438
   8 O :    0.172196    0.027795
   9 H :   -0.145117   -0.000055

----------------------------------------------------
LOEWDIN REDUCED ORBITAL CHARGES AND SPIN POPULATIONS
----------------------------------------------------
CHARGE
  0 C s       :     2.593071  s :     2.593071
      pz      :     0.788097  p :     2.617067
      px      :     0.924786
      py      :     0.904183
      dz2     :     0.100951  d :     1.228327
      dxz     :     0.146346
      dyz     :     0.208023
      dx2y2   :     0.359944
      dxy     :     0.413064

  1 C s       :     2.580196  s :     2.580196
      pz      :     0.701484  p :     2.496690
      px      :     0.905457
      py      :     0.889749
      dz2     :     0.119239  d :     1.417458
      dxz     :     0.174232
      dyz     :     0.256977
      dx2y2   :     0.403500
      dxy     :     0.463510

  2 C s       :     2.612585  s :     2.612585
      pz      :     0.927872  p :     2.811863
      px      :     0.932555
      py      :     0.951436
      dz2     :     0.066785  d :     0.468373
      dxz     :     0.153690
      dyz     :     0.034761
      dx2y2   :     0.124225
      dxy     :     0.088911

  3 H s       :     0.743528  s :     0.743528
      pz      :     0.118709  p :     0.287472
      px      :     0.094581
      py      :     0.074183

  4 H s       :     0.743531  s :     0.743531
      pz      :     0.118701  p :     0.287468
      px      :     0.094586
      py      :     0.074182

  5 H s       :     0.731167  s :     0.731167
      pz      :     0.075898  p :     0.303763
      px      :     0.098707
      py      :     0.129158

  6 O s       :     3.381191  s :     3.381191
      pz      :     1.445504  p :     4.496647
      px      :     1.628164
      py      :     1.422980
      dz2     :     0.019752  d :     0.189847
      dxz     :     0.001780
      dyz     :     0.051071
      dx2y2   :     0.058209
      dxy     :     0.059035

  7 O s       :     3.386859  s :     3.386859
      pz      :     1.415611  p :     4.479080
      px      :     1.611244
      py      :     1.452225
      dz2     :     0.018475  d :     0.170892
      dxz     :     0.004948
      dyz     :     0.038621
      dx2y2   :     0.050554
      dxy     :     0.058295

  8 O s       :     3.250139  s :     3.250139
      pz      :     1.611291  p :     4.393382
      px      :     1.495263
      py      :     1.286828
      dz2     :     0.023578  d :     0.184282
      dxz     :     0.017430
      dyz     :     0.021152
      dx2y2   :     0.048564
      dxy     :     0.073558

  9 H s       :     0.599923  s :     0.599923
      pz      :     0.125760  p :     0.545194
      px      :     0.243692
      py      :     0.175742


SPIN
  0 C s       :     0.005293  s :     0.005293
      pz      :     0.226792  p :     0.232426
      px      :     0.003696
      py      :     0.001938
      dz2     :    -0.000606  d :     0.063328
      dxz     :     0.022369
      dyz     :     0.043336
      dx2y2   :    -0.000058
      dxy     :    -0.001713

  1 C s       :    -0.000664  s :    -0.000664
      pz      :     0.081738  p :     0.077226
      px      :    -0.003336
      py      :    -0.001175
      dz2     :    -0.000101  d :     0.078808
      dxz     :     0.065028
      dyz     :     0.013447
      dx2y2   :     0.000892
      dxy     :    -0.000458

  2 C s       :    -0.002230  s :    -0.002230
      pz      :    -0.003922  p :    -0.013441
      px      :    -0.005751
      py      :    -0.003768
      dz2     :     0.000153  d :     0.050938
      dxz     :     0.045135
      dyz     :     0.004750
      dx2y2   :    -0.000245
      dxy     :     0.001145

  3 H s       :     0.010256  s :     0.010256
      pz      :     0.000701  p :     0.003251
      px      :     0.002925
      py      :    -0.000375

  4 H s       :     0.010254  s :     0.010254
      pz      :     0.000700  p :     0.003250
      px      :     0.002925
      py      :    -0.000375

  5 H s       :    -0.000002  s :    -0.000002
      pz      :    -0.000605  p :    -0.001733
      px      :    -0.000703
      py      :    -0.000425

  6 O s       :     0.004984  s :     0.004984
      pz      :     0.244760  p :     0.248489
      px      :     0.004807
      py      :    -0.001079
      dz2     :     0.000364  d :     0.030388
      dxz     :     0.000861
      dyz     :     0.028813
      dx2y2   :     0.000453
      dxy     :    -0.000103

  7 O s       :     0.002791  s :     0.002791
      pz      :     0.153347  p :     0.155779
      px      :     0.001720
      py      :     0.000712
      dz2     :     0.000142  d :     0.012867
      dxz     :     0.001827
      dyz     :     0.011371
      dx2y2   :    -0.000024
      dxy     :    -0.000449

  8 O s       :     0.000040  s :     0.000040
      pz      :     0.023959  p :     0.020849
      px      :    -0.001726
      py      :    -0.001384
      dz2     :    -0.000019  d :     0.006906
      dxz     :     0.003898
      dyz     :     0.003527
      dx2y2   :    -0.000430
      dxy     :    -0.000071

  9 H s       :    -0.001128  s :    -0.001128
      pz      :     0.002749  p :     0.001073
      px      :    -0.001216
      py      :    -0.000460



                      *****************************
                      * MAYER POPULATION ANALYSIS *
                      *****************************

  NA   - Mulliken gross atomic population
  ZA   - Total nuclear charge
  QA   - Mulliken gross atomic charge
  VA   - Mayer's total valence
  BVA  - Mayer's bonded valence
  FA   - Mayer's free valence

  ATOM       NA         ZA         QA         VA         BVA        FA
  0 C      5.9265     6.0000     0.0735     3.9361     3.7774     0.1587
  1 C      5.1998     6.0000     0.8002     2.9304     2.9052     0.0253
  2 C      5.3858     6.0000     0.6142     3.7700     3.7681     0.0019
  3 H      1.1167     1.0000    -0.1167     0.8643     0.8635     0.0008
  4 H      1.1167     1.0000    -0.1167     0.8642     0.8634     0.0008
  5 H      1.2687     1.0000    -0.2687     0.8423     0.8423     0.0000
  6 O      8.8888     8.0000    -0.8888     1.4402     1.3604     0.0799
  7 O      8.6844     8.0000    -0.6844     1.6321     1.6004     0.0317
  8 O      8.5546     8.0000    -0.5546     1.6768     1.6759     0.0009
  9 H      0.8578     1.0000     0.1422     1.0460     1.0460     0.0000

  Mayer bond orders larger than 0.100000
B(  0-C ,  1-C ) :   0.9341 B(  0-C ,  2-C ) :   1.2745 B(  0-C ,  3-H ) :   0.1222 
B(  0-C ,  4-H ) :   0.1221 B(  0-C ,  5-H ) :   0.1884 B(  0-C ,  6-O ) :   1.1194 
B(  0-C ,  8-O ) :   0.1145 B(  1-C ,  5-H ) :  -0.1097 B(  1-C ,  7-O ) :   1.5836 
B(  1-C ,  8-O ) :   0.6129 B(  2-C ,  3-H ) :   0.8606 B(  2-C ,  4-H ) :   0.8606 
B(  2-C ,  5-H ) :   0.8190 B(  6-O ,  9-H ) :   0.1367 B(  8-O ,  9-H ) :   0.9715 


-------
TIMINGS
-------

Total SCF time: 0 days 0 hours 0 min 59 sec 

Total time                  ....      59.873 sec
Sum of individual times     ....      56.588 sec  ( 94.5%)

SCF preparation             ....       0.434 sec  (  0.7%)
Fock matrix formation       ....      53.916 sec  ( 90.1%)
  Startup                   ....       0.051 sec  (  0.1% of F)
  Coulomb+Exchange Fock     ....      44.053 sec  ( 81.7% of F)
  XC integration            ....      11.636 sec  ( 21.6% of F)
    XC Preparation          ....       0.000 sec  (  0.0% of XC)
    Basis function eval.    ....       2.538 sec  ( 21.8% of XC)
    Density eval.           ....       2.286 sec  ( 19.6% of XC)
    XC-Functional eval.     ....       0.878 sec  (  7.5% of XC)
    XC-Potential eval.      ....       4.260 sec  ( 36.6% of XC)
Diagonalization             ....       0.000 sec  (  0.0%)
Density matrix formation    ....       0.464 sec  (  0.8%)
Total Energy calculation    ....       0.523 sec  (  0.9%)
Population analysis         ....       0.173 sec  (  0.3%)
Orbital Transformation      ....       0.131 sec  (  0.2%)
Orbital Orthonormalization  ....       0.000 sec  (  0.0%)
DIIS solution               ....       0.324 sec  (  0.5%)
SOSCF solution              ....       0.623 sec  (  1.0%)
Finished LeanSCF after  60.0 sec

Maximum memory used throughout the entire LEANSCF-calculation: 12.4 MB


           ************************************************************
           *        Program running with 8 parallel MPI-processes     *
           *              working on a common directory               *
           ************************************************************

------------------------------------------------------------------------------
                         ORCA PROPERTY INTEGRAL CALCULATIONS
------------------------------------------------------------------------------

GBWName                                   ... d0_freq_0_wat.gbw
Number of atoms                           ...     10
Number of basis functions                 ...    210
Max core memory                           ...   8000 MB

Dipole integrals                          ... YES
Quadrupole integrals                      ...  NO
Linear momentum integrals                 ...  NO
Angular momentum integrals                ...  NO
Higher moments length integrals           ...  NO
Higher moments velocity integrals         ...  NO
Kinetic energy integrals                  ...  NO
GIAO right hand sides                     ...  NO
GIAO dipole derivative integrals          ...  NO
SOC integrals                             ...  NO
EPR diamagnetic integrals (GIAO)          ...  NO
EPR gauge integrals                       ...  NO
Field gradient integrals                  ...  NO (   0 nuclei)
Spin-dipole/Fermi contact integrals       ...  NO (   0 nuclei)
Contact density integrals                 ...  NO (   0 nuclei)
Nucleus-orbit integrals                   ...  NO (   0 nuclei)
Geometric perturbations                   ... YES (  10 nuclei)

Choice of electric origin   ... Center of mass
Position of electric origin ... (  0.1107, -0.0308,  0.0000) 
Choice of magnetic origin   ... GIAO
Position of magnetic origin ... (  0.0000,  0.0000,  0.0000) 

Calculating integrals                     ... Electric Dipole (Length)     done (  0.0 sec)
Calculating integrals                     ... Geometrical perturbation right hand sides

-----------------------
GEOMETRIC PERTURBATIONS (10 nuclei)
-----------------------

MaxCore                            ...   8000 MB
Number of batches                  ...      1

BATCH   0: Atoms    0 -    9 ( 30 perturbations)
   => H(core) and overlap derivative integrals     ... done (     0.1 sec)
   => Making and storing internal U-coefficients   ... done (     0.0 sec)
   => Exact two electron derivative integrals      ... done (    29.1 sec)
   => Exact two-electron response operators        ... done (    71.4 sec)
   => XC derivative integrals                      ... done (    61.8 sec)
   => XC response operators                        ... done (    14.8 sec)
   => Completing and storing right hand sides      ... done (     0.0 sec)
   => Total time for right hand sides = 149.1 sec

  geometrical perturbations done (149.1 sec)

Property integrals calculated in 149.2 sec

Maximum memory used throughout the entire PROPINT-calculation: 52.3 MB

-------------------------   --------------------
FINAL SINGLE POINT ENERGY      -342.380025934741
-------------------------   --------------------



           ************************************************************
           *        Program running with 8 parallel MPI-processes     *
           *              working on a common directory               *
           ************************************************************
------------------------------------------------------------------------------
                         ORCA SCF GRADIENT CALCULATION
------------------------------------------------------------------------------

Nuc. rep. gradient        (SHARK) ... done (  0.0 sec)
HCore & Overlap gradient  (SHARK) ... done (  0.0 sec)
Two-electron gradient     (SHARK) ... done ( 12.2 sec)
XC gradient                       ... done (  3.2 sec)

------------------
CARTESIAN GRADIENT
------------------

   1   C   :    0.000035606    0.000006043   -0.000006820
   2   C   :    0.000016294   -0.000013591    0.000003736
   3   C   :   -0.000070503    0.000056907   -0.000001419
   4   H   :    0.000054740   -0.000022137    0.000029536
   5   H   :    0.000052097   -0.000022051   -0.000029842
   6   H   :   -0.000042185    0.000015281    0.000001444
   7   O   :   -0.000062351   -0.000021487    0.000005630
   8   O   :    0.000014490   -0.000010023   -0.000000195
   9   O   :   -0.000060134    0.000008523    0.000002070
  10   H   :    0.000061945    0.000002535   -0.000004140

Difference to translation invariance:
           :    0.0000000000    0.0000000000    0.0000000000

Difference to rotation invariance:
           :    0.0000000584   -0.0000001315   -0.0000051970

Norm of the Cartesian gradient     ...    0.0001809314
RMS gradient                       ...    0.0000330334
MAX gradient                       ...    0.0000705027

-------
TIMINGS
-------

Total SCF gradient time     ....       15.527 sec

Densities                   ....       0.001 sec  (  0.0%)
One electron gradient       ....       0.049 sec  (  0.3%)
Two electron gradient       ....      12.229 sec  ( 78.8%)
XC gradient                 ....       3.247 sec  ( 20.9%)

Maximum memory used throughout the entire SCFGRAD-calculation: 21.3 MB


           ************************************************************
           *        Program running with 8 parallel MPI-processes     *
           *              working on a common directory               *
           ************************************************************
------------------------------------------------------------------------------
                            ORCA SCF RESPONSE CALCULATION
------------------------------------------------------------------------------

GBWName                                 ... d0_freq_0_wat.gbw
Number of atoms                         ...     10
Number of basis functions               ...    210
Max core memory                         ...   8000 MB

Electric field perturbation             ...  NO
Quadrupolar field perturbation          ...  NO
Magnetic field perturbation (no GIAO)   ...  NO
Magnetic field perturbation (with GIAO) ...  NO
Linear momentum (velocity) perturbation ...  NO
Spin-orbit coupling perturbation        ...  NO
Choice of electric origin               ... Center of mass
Position of electric origin             ...     0.110678    -0.030761     0.000005
Choice of magnetic origin               ... GIAO
Position of magnetic origin             ...     0.000000     0.000000     0.000000
Nuclear geometric perturbations         ... YES (  30 perturbations)
Nucleus-orbit perturbations             ...  NO (   0 perturbations)
Spin-dipole/Fermi contact perturbations ...  NO (   0 perturbations)

Total number of real perturbations      ...     30
Total number of imaginary perturbations ...      0
Total number of triplet perturbations   ...      0
Total number of SOC perturbations       ...      0

Using XC Grid                  ... (d0_freq_0_wat.grid_cpscf.tmp) 
Recalculating density on grid  ... (d0_freq_0_wat.grho_cpscf0.tmp) done
Calculating the xc-kernel      ... (d0_freq_0_wat.fxc_cpscf0.tmp) done

                                **********************
                                * REAL PERTURBATIONS *
                                **********************



-------------------
SHARK CP-SCF DRIVER
-------------------

Dimension of the orbital basis          ...    174
Dimension of the CPSCF-problem          ...   7073
Number of operators                     ...      2
Max. number of iterations               ...    128
Convergence Tolerance                   ... 1.0e-04
Number of perturbations                 ...     30
Perturbation type                       ... REAL

----------------------------
POPLE LINEAR EQUATION SOLVER
----------------------------

  ITERATION   0:   ||err||_max =   2.7361e-01 (  97.2 sec   0/ 30 done)
  ITERATION   1:   ||err||_max =   7.7842e-02 (  98.9 sec   0/ 30 done)
  ITERATION   2:   ||err||_max =   4.3619e-02 (  98.4 sec   0/ 30 done)
  ITERATION   3:   ||err||_max =   2.2631e-02 (  98.3 sec   0/ 30 done)
  ITERATION   4:   ||err||_max =   9.4308e-03 (  99.0 sec   0/ 30 done)
  ITERATION   5:   ||err||_max =   4.5951e-03 (  99.3 sec   1/ 30 done)
  ITERATION   6:   ||err||_max =   1.5474e-03 (  95.5 sec   2/ 30 done)
  ITERATION   7:   ||err||_max =   8.3147e-04 (  91.5 sec   6/ 30 done)
  ITERATION   8:   ||err||_max =   3.0633e-04 (  73.5 sec  21/ 30 done)
  ITERATION   9:   ||err||_max =   1.4650e-04 (  23.3 sec  25/ 30 done)
  ITERATION  10:   ||err||_max =   4.8587e-05 (  13.7 sec  30/ 30 done)

CP-SCF equations solved in 888.7 sec
Response densities calculated in   0.0 sec

Maximum memory used throughout the entire SCFRESP-calculation: 68.4 MB


           ************************************************************
           *        Program running with 8 parallel MPI-processes     *
           *              working on a common directory               *
           ************************************************************

------------------------------------------------------------------------------
                              ORCA PROPERTY CALCULATIONS
------------------------------------------------------------------------------

GBWName                                 ... d0_freq_0_wat.gbw
Number of atoms                         ...     10
Number of basis functions               ...    210
Max core memory                         ...   8000 MB

Electric properties:
Dipole moment                           ... YES
Quadrupole moment                       ...  NO
Static polarizability (Dipole/Dipole)   ...  NO
Static polarizability (Dipole/Quad.)    ...  NO
Static polarizability (Quad./Quad.)     ...  NO
Static polarizability (Velocity)        ...  NO
Static hyperpolarizability              ...  NO

Atomic electric properties:
Dipole moment                           ...  NO
Quadrupole moment                       ...  NO
Static polarizability                   ...  NO

Choice of electric origin               ... Center of mass
Position of electric origin             ...     0.110678    -0.030761     0.000005

General magnetic properties:
Magnetizability                         ...  NO

EPR properties:
g-Tensor (aka g-matrix)                 ...  NO
Zero-Field splitting spin-orbit         ...  NO
Zero-field splitting spin-spin          ...  NO
Hyperfine couplings                     ...  NO (   0 nuclei)
Quadrupole couplings                    ...  NO (   0 nuclei)
Contact density                         ...  NO (   0 nuclei)

NMR properties:
Chemical shifts                         ...  NO (   0 nuclei)
Spin-rotation constants                 ...  NO (   0 nuclei)
Spin-spin couplings                     ...  NO (   0 nuclei,    0 pairs)

Choice of magnetic origin               ... GIAO
Position of magnetic origin             ...     0.000000     0.000000     0.000000

Properties with geometric perturbations:
SCF Hessian                             ... YES
IR spectrum                             ... YES
VCD spectrum                            ...  NO
X-ray spectroscopy properties:
SCF XES/XAS/RIXS spectra                ...  NO

SCF SOC stabilization energy            ...  NO
Diagonal Born-Oppenheimer correction    ...  NO

-------------
DIPOLE MOMENT
-------------

Method             : SCF
Type of density    : Electron Density
Multiplicity       :   2
Irrep              :   0
Energy             :  -342.3800259347408428 Eh
Basis              : AO
                                X                 Y                 Z
Electronic contribution:      4.506927036      -1.396427734       0.000049922
Nuclear contribution   :     -5.092995573       1.415109431      -0.000137035
                        -----------------------------------------
Total Dipole Moment    :     -0.586068537       0.018681697      -0.000087113
                        -----------------------------------------
Magnitude (a.u.)       :      0.586366219
Magnitude (Debye)      :      1.490424484



--------------------
Rotational spectrum 
--------------------
 
Rotational constants in cm-1:             0.180280             0.119815             0.072965 
Rotational constants in MHz :          5404.669880          3591.960879          2187.443770 

Dipole components along the rotational axes: 
x,y,z [a.u.] :    -0.576548     0.106854    -0.000083 
x,y,z [Debye]:    -1.465468     0.271602    -0.000211 

 

Dipole moment calculation done in   0.0 sec 

-----------
SCF HESSIAN
-----------

Occupied/Occupied contributions to the Hessian:
   => Occupied/Occupied contributions              ... done (  0.0 sec)
Perturbed density contributions to the Hessian:
   => Perturbed density contributions              ... done (  0.0 sec)
Explicit contributions to the Hessian:
   => Nuclear repulsion Hessian                    ... done (  0.0 sec)
   => HCore and overlap Hessian                    ... done (  0.9 sec)
   => Exact two electron integral Hessian          ... done ( 97.6 sec)
   => XC-Hessian                                   ... done ( 23.8 sec)
   => Explicit contributions done
Dipole derivatives                                 ... done (  0.0 sec)
Mass weighting the Hessian           ... done
Calculating normal modes             ... done
Scaling frequencies                  ... done

-----------------------
VIBRATIONAL FREQUENCIES
-----------------------

Scaling factor for frequencies =  1.000000000  (already applied!)

     0:       0.00 cm**-1
     1:       0.00 cm**-1
     2:       0.00 cm**-1
     3:       0.00 cm**-1
     4:       0.00 cm**-1
     5:       0.00 cm**-1
     6:     117.51 cm**-1
     7:     159.01 cm**-1
     8:     266.30 cm**-1
     9:     350.52 cm**-1
    10:     395.43 cm**-1
    11:     556.85 cm**-1
    12:     595.25 cm**-1
    13:     690.33 cm**-1
    14:     792.40 cm**-1
    15:     796.60 cm**-1
    16:     973.40 cm**-1
    17:    1005.30 cm**-1
    18:    1097.24 cm**-1
    19:    1291.06 cm**-1
    20:    1350.13 cm**-1
    21:    1425.61 cm**-1
    22:    1453.03 cm**-1
    23:    1460.60 cm**-1
    24:    1526.12 cm**-1
    25:    1727.64 cm**-1
    26:    2995.39 cm**-1
    27:    3038.66 cm**-1
    28:    3136.08 cm**-1
    29:    3547.59 cm**-1


------------
NORMAL MODES
------------

These modes are the Cartesian displacements weighted by the diagonal matrix
M(i,i)=1/sqrt(m[i]) where m[i] is the mass of the displaced atom
Thus, these vectors are normalized but *not* orthogonal

                  0          1          2          3          4          5    
      0       0.000000   0.000000   0.000000   0.000000   0.000000   0.000000
      1       0.000000   0.000000   0.000000   0.000000   0.000000   0.000000
      2       0.000000   0.000000   0.000000   0.000000   0.000000   0.000000
      3       0.000000   0.000000   0.000000   0.000000   0.000000   0.000000
      4       0.000000   0.000000   0.000000   0.000000   0.000000   0.000000
      5       0.000000   0.000000   0.000000   0.000000   0.000000   0.000000
      6       0.000000   0.000000   0.000000   0.000000   0.000000   0.000000
      7       0.000000   0.000000   0.000000   0.000000   0.000000   0.000000
      8       0.000000   0.000000   0.000000   0.000000   0.000000   0.000000
      9       0.000000   0.000000   0.000000   0.000000   0.000000   0.000000
     10       0.000000   0.000000   0.000000   0.000000   0.000000   0.000000
     11       0.000000   0.000000   0.000000   0.000000   0.000000   0.000000
     12       0.000000   0.000000   0.000000   0.000000   0.000000   0.000000
     13       0.000000   0.000000   0.000000   0.000000   0.000000   0.000000
     14       0.000000   0.000000   0.000000   0.000000   0.000000   0.000000
     15       0.000000   0.000000   0.000000   0.000000   0.000000   0.000000
     16       0.000000   0.000000   0.000000   0.000000   0.000000   0.000000
     17       0.000000   0.000000   0.000000   0.000000   0.000000   0.000000
     18       0.000000   0.000000   0.000000   0.000000   0.000000   0.000000
     19       0.000000   0.000000   0.000000   0.000000   0.000000   0.000000
     20       0.000000   0.000000   0.000000   0.000000   0.000000   0.000000
     21       0.000000   0.000000   0.000000   0.000000   0.000000   0.000000
     22       0.000000   0.000000   0.000000   0.000000   0.000000   0.000000
     23       0.000000   0.000000   0.000000   0.000000   0.000000   0.000000
     24       0.000000   0.000000   0.000000   0.000000   0.000000   0.000000
     25       0.000000   0.000000   0.000000   0.000000   0.000000   0.000000
     26       0.000000   0.000000   0.000000   0.000000   0.000000   0.000000
     27       0.000000   0.000000   0.000000   0.000000   0.000000   0.000000
     28       0.000000   0.000000   0.000000   0.000000   0.000000   0.000000
     29       0.000000   0.000000   0.000000   0.000000   0.000000   0.000000
                  6          7          8          9         10         11    
      0      -0.000000   0.000003   0.002492   0.000000   0.008289   0.200294
      1      -0.000004   0.000007  -0.123828  -0.000017   0.012930   0.162405
      2      -0.036084  -0.112084  -0.000000  -0.469838  -0.000050   0.000023
      3      -0.000001   0.000003  -0.039252  -0.000002   0.064323   0.135021
      4      -0.000001   0.000006  -0.078119  -0.000010  -0.025165  -0.074007
      5       0.000639  -0.031447  -0.000005  -0.212793  -0.000015  -0.000002
      6       0.000007  -0.000005   0.233743   0.000013  -0.129818   0.078927
      7       0.000004   0.000000   0.161014   0.000007  -0.115019  -0.073411
      8       0.006704   0.263377   0.000011   0.035938   0.000018   0.000003
      9       0.324844   0.154778   0.189242   0.282247  -0.081648   0.148514
     10       0.386057  -0.235829   0.361025  -0.378528  -0.343141  -0.426881
     11       0.314160   0.333890   0.003306   0.173836  -0.008240  -0.014900
     12      -0.324800  -0.154771   0.189264  -0.282203  -0.081742   0.148554
     13      -0.386013   0.235799   0.361133   0.378555  -0.343071  -0.426931
     14       0.314209   0.333893  -0.003325   0.173841   0.008339   0.014898
     15      -0.000003  -0.000020   0.565515   0.000032  -0.469147  -0.403519
     16      -0.000009   0.000012   0.039445   0.000011   0.005725   0.089796
     17      -0.538970   0.470875   0.000068   0.352887   0.000050  -0.000002
     18      -0.000002   0.000019  -0.135370   0.000045  -0.330130   0.000344
     19      -0.000003  -0.000010  -0.089883   0.000029   0.089808   0.244764
     20      -0.025979  -0.251924  -0.000002   0.232547   0.000012  -0.000016
     21      -0.000006   0.000011  -0.251926  -0.000024   0.105366  -0.328992
     22       0.000000   0.000004  -0.004384  -0.000009  -0.038985   0.080260
     23       0.028748  -0.252941  -0.000016   0.164585   0.000003  -0.000003
     24       0.000001  -0.000027   0.158135  -0.000030   0.274271   0.038860
     25       0.000002  -0.000004   0.079607  -0.000007   0.091271  -0.281918
     26       0.013183   0.325334   0.000013   0.035449   0.000018  -0.000002
     27       0.000004  -0.000049   0.346052  -0.000057   0.528392  -0.230003
     28       0.000000   0.000008  -0.041181  -0.000002  -0.058516  -0.098734
     29      -0.000119   0.282801  -0.000049   0.139279  -0.000115   0.000049
                 12         13         14         15         16         17    
      0      -0.118678   0.000003   0.000024  -0.039912   0.085526   0.000005
      1       0.105444   0.000008   0.000078  -0.130291  -0.031810  -0.000006
      2       0.000018   0.288208   0.008710   0.000019   0.000006  -0.122083
      3      -0.038402   0.000006  -0.000148   0.216397   0.052798   0.000017
      4      -0.163457  -0.000005  -0.000087   0.163674  -0.024310  -0.000003
      5      -0.000026  -0.653309  -0.032672  -0.000150  -0.000003   0.020315
      6      -0.293342   0.000019   0.000151  -0.233710   0.023761   0.000001
      7       0.234382  -0.000018  -0.000080   0.119388   0.182352   0.000009
      8      -0.000003   0.046876  -0.001596  -0.000013  -0.000017   0.148283
      9      -0.305835  -0.271255   0.005439  -0.284875   0.041073  -0.538190
     10       0.294159   0.223057  -0.003041   0.405301  -0.310765   0.336083
     11       0.001647  -0.117745   0.000924   0.012194  -0.068825  -0.193413
     12      -0.305793   0.271272  -0.005072  -0.284974   0.041020   0.538162
     13       0.294110  -0.223099   0.002540   0.405371  -0.310736  -0.336082
     14      -0.001678  -0.117759   0.000938  -0.012179   0.068853  -0.193453
     15      -0.264924   0.000017  -0.000017   0.053405  -0.724179  -0.000032
     16       0.227518  -0.000023  -0.000026   0.027894   0.437820   0.000008
     17      -0.000027  -0.136310   0.001956   0.000009   0.000028  -0.286057
     18       0.244433  -0.000025   0.000057  -0.073896  -0.013937  -0.000004
     19       0.060104  -0.000013   0.000140  -0.220630  -0.124401  -0.000006
     20      -0.000012  -0.060564   0.020355   0.000096   0.000010   0.012457
     21      -0.091383   0.000015  -0.000011   0.021730  -0.007577  -0.000003
     22      -0.196673   0.000008  -0.000199   0.344668  -0.015887  -0.000002
     23       0.000004   0.170864  -0.005031  -0.000013  -0.000000  -0.004640
     24       0.216450  -0.000014  -0.000105   0.143759  -0.054525  -0.000004
     25      -0.038033   0.000022   0.000157  -0.290811   0.053205   0.000006
     26       0.000022   0.127981   0.066434   0.000266   0.000002   0.001307
     27       0.378904   0.000007   0.000251  -0.255449  -0.082371  -0.000025
     28      -0.146056  -0.000016   0.000009  -0.011910   0.061710   0.000019
     29      -0.000050   0.381678  -0.996957  -0.003846  -0.000059  -0.026158
                 18         19         20         21         22         23    
      0      -0.155661  -0.238989  -0.060459   0.119651  -0.000027  -0.089661
      1      -0.023767   0.109223   0.026334   0.016245   0.000021   0.102608
      2      -0.000013  -0.000002  -0.000000   0.000002   0.016214  -0.000010
      3      -0.316499   0.107003  -0.008006  -0.116128   0.000020   0.059751
      4       0.136902  -0.024675   0.040874   0.129434  -0.000020  -0.062972
      5      -0.000000  -0.000002  -0.000002  -0.000008  -0.000195   0.000004
      6       0.137048   0.043994   0.137823  -0.075015   0.000011   0.006596
      7       0.060145   0.021755  -0.097612  -0.009354  -0.000012  -0.065525
      8       0.000010  -0.000006  -0.000004   0.000010   0.057989  -0.000014
      9       0.191313   0.144156  -0.291736   0.375839  -0.003762   0.406539
     10      -0.413657  -0.373626   0.366416   0.154102  -0.469221   0.243517
     11      -0.047128   0.002334  -0.198331   0.326121  -0.053948   0.325550
     12       0.191416   0.144142  -0.291717   0.375805   0.003855   0.406501
     13      -0.413718  -0.373629   0.366417   0.154203   0.469291   0.243261
     14       0.047105  -0.002321   0.198347  -0.326181  -0.054046  -0.325571
     15      -0.244910   0.265774  -0.566950  -0.095328  -0.000095  -0.358676
     16       0.177669  -0.072570   0.155636   0.011989   0.000001   0.072996
     17      -0.000017   0.000001   0.000032  -0.000085  -0.741690   0.000212
     18       0.053483   0.005312  -0.000180  -0.020605   0.000002   0.003356
     19       0.005166  -0.051569  -0.005243  -0.031549  -0.000009  -0.052634
     20      -0.000002   0.000005   0.000001   0.000003  -0.002459   0.000005
     21       0.067155  -0.011506  -0.006761  -0.010576   0.000000   0.001395
     22       0.078045  -0.020131  -0.031498  -0.092335   0.000014   0.046149
     23       0.000002  -0.000000   0.000000   0.000001   0.000794  -0.000001
     24       0.095788   0.073930   0.043483   0.075005  -0.000012  -0.036694
     25      -0.152445   0.017295  -0.007984  -0.021470   0.000003   0.005972
     26      -0.000007   0.000008   0.000003   0.000004  -0.000388  -0.000002
     27       0.420149  -0.580697  -0.256051  -0.500031   0.000095   0.330440
     28      -0.316165   0.416681   0.183709   0.362353  -0.000069  -0.243155
     29       0.000171  -0.000088  -0.000025  -0.000038   0.000418   0.000025
                 24         25         26         27         28         29    
      0      -0.131915  -0.146233  -0.001781  -0.000001  -0.002599  -0.000381
      1      -0.403263  -0.149663  -0.001424  -0.000000  -0.000976   0.003638
      2       0.000027   0.000015   0.000000   0.000084   0.000000  -0.000000
      3       0.041644   0.300295   0.002638   0.000001   0.000467   0.002374
      4      -0.125344   0.475395   0.001880   0.000000  -0.000774  -0.006544
      5       0.000001  -0.000002  -0.000000   0.000610   0.000000  -0.000000
      6      -0.013021   0.011341  -0.052469  -0.000000  -0.043386   0.000425
      7       0.024991   0.017425   0.007997   0.000002  -0.078378  -0.000401
      8       0.000001  -0.000003  -0.000005   0.091413   0.000002   0.000000
      9       0.300545   0.093367   0.369686   0.414380   0.113273  -0.003160
     10       0.087909  -0.079363   0.099725   0.111177   0.020026   0.000417
     11       0.235116   0.067166  -0.549775  -0.558218  -0.174579   0.002630
     12       0.300530   0.093355   0.369812  -0.414365   0.113298  -0.003159
     13       0.087900  -0.079366   0.099771  -0.111187   0.020038   0.000416
     14      -0.235154  -0.067164   0.549829  -0.558069   0.174577  -0.002629
     15      -0.401262  -0.021122  -0.113521  -0.000007   0.315363  -0.000094
     16       0.156057   0.035313  -0.293887  -0.000017   0.897246  -0.005173
     17       0.000008   0.000011   0.000008   0.021516  -0.000029   0.000000
     18       0.049572   0.015659   0.000384   0.000000   0.000428   0.001042
     19       0.235633   0.062144   0.000559   0.000000   0.000550  -0.002486
     20      -0.000020  -0.000010  -0.000000  -0.000098  -0.000000  -0.000000
     21       0.031140  -0.111086  -0.000421  -0.000000  -0.000338  -0.000426
     22       0.071053  -0.258720  -0.001347  -0.000000   0.000332   0.000988
     23       0.000001   0.000001   0.000000  -0.000025   0.000000  -0.000000
     24       0.009006  -0.076371  -0.000826  -0.000000  -0.000186  -0.035526
     25       0.031569  -0.028034   0.000215   0.000000  -0.000142  -0.048965
     26       0.000002  -0.000004   0.000000  -0.000090  -0.000000  -0.000004
     27      -0.393019   0.590301   0.002718   0.000001   0.001967   0.531695
     28       0.300259  -0.400506   0.002763   0.000001   0.005726   0.844695
     29      -0.000034   0.000059   0.000000   0.000648   0.000001   0.000071


-----------
IR SPECTRUM
-----------

 Mode   freq       eps      Int      T**2         TX        TY        TZ
       cm**-1   L/(mol*cm) km/mol    a.u.
----------------------------------------------------------------------------
  6:    117.51   0.000014    0.07  0.000038  ( 0.000005 -0.000005 -0.006175)
  7:    159.01   0.001406    7.10  0.002759  (-0.000006  0.000010  0.052524)
  8:    266.30   0.004164   21.05  0.004880  ( 0.069736 -0.004133 -0.000003)
  9:    350.52   0.000560    2.83  0.000498  ( 0.000015  0.000008 -0.022319)
 10:    395.43   0.002101   10.62  0.001658  ( 0.034496 -0.021640 -0.000007)
 11:    556.85   0.000011    0.06  0.000006  ( 0.000388 -0.002456  0.000002)
 12:    595.25   0.000682    3.44  0.000357  (-0.017691  0.006660 -0.000003)
 13:    690.33   0.000321    1.62  0.000145  (-0.000004  0.000001 -0.012047)
 14:    792.40   0.014136   71.44  0.005567  ( 0.000021 -0.000070 -0.074613)
 15:    796.60   0.002639   13.33  0.001034  (-0.015615  0.028103 -0.000113)
 16:    973.40   0.002367   11.96  0.000759  ( 0.025535  0.010339 -0.000003)
 17:   1005.30   0.000005    0.03  0.000002  ( 0.000014 -0.000000 -0.001242)
 18:   1097.24   0.027950  141.25  0.007949  (-0.087287  0.018171  0.000003)
 19:   1291.06   0.012044   60.87  0.002911  (-0.008172  0.053333 -0.000004)
 20:   1350.13   0.016302   82.38  0.003768  (-0.021894  0.057347  0.000000)
 21:   1425.61   0.051872  262.14  0.011355  (-0.049502  0.094363 -0.000003)
 22:   1453.03   0.000766    3.87  0.000165  ( 0.000013 -0.000012 -0.012826)
 23:   1460.60   0.008808   44.51  0.001882  ( 0.043001 -0.005724  0.000001)
 24:   1526.12   0.049186  248.56  0.010058  (-0.043585 -0.090321  0.000002)
 25:   1727.64   0.069512  351.29  0.012556  ( 0.091328  0.064925  0.000002)
 26:   2995.39   0.028319  143.11  0.002950  (-0.053358  0.010161 -0.000002)
 27:   3038.66   0.016812   84.96  0.001727  (-0.000005  0.000002  0.041552)
 28:   3136.08   0.004181   21.13  0.000416  (-0.008429 -0.018575  0.000001)
 29:   3547.59   0.018870   95.36  0.001660  ( 0.034104  0.022290  0.000001)

* The epsilon (eps) is given for a Dirac delta lineshape.
** The dipole moment derivative (T) already includes vibrational overlap.

The first frequency considered to be a vibration is 6
The total number of vibrations considered is 24


--------------------------
THERMOCHEMISTRY AT 298.15K
--------------------------

Temperature         ...   298.15 K
Pressure            ...     1.00 atm
Total Mass          ...    88.06 AMU
Quasi RRHO          ...     True
Cut-Off Frequency   ...     1.00 cm^-1

Throughout the following assumptions are being made:
  (1) The electronic state is orbitally nondegenerate
      but the spin degeneracy is treated
  (2) There are no thermally accessible electronically excited states
  (3) Hindered rotations indicated by low frequency modes are not
      treated as such but are treated as vibrations and this may
      cause some error
  (4) All equations used are the standard statistical mechanics
      equations for an ideal gas
  (5) All vibrations are strictly harmonic

freq.     117.51  E(vib)   ...       0.44 
freq.     159.01  E(vib)   ...       0.39 
freq.     266.30  E(vib)   ...       0.29 
freq.     350.52  E(vib)   ...       0.23 
freq.     395.43  E(vib)   ...       0.20 
freq.     556.85  E(vib)   ...       0.12 
freq.     595.25  E(vib)   ...       0.10 
freq.     690.33  E(vib)   ...       0.07 
freq.     792.40  E(vib)   ...       0.05 
freq.     796.60  E(vib)   ...       0.05 
freq.     973.40  E(vib)   ...       0.03 
freq.    1005.30  E(vib)   ...       0.02 
freq.    1097.24  E(vib)   ...       0.02 
freq.    1291.06  E(vib)   ...       0.01 
freq.    1350.13  E(vib)   ...       0.01 
freq.    1425.61  E(vib)   ...       0.00 
freq.    1453.03  E(vib)   ...       0.00 
freq.    1460.60  E(vib)   ...       0.00 
freq.    1526.12  E(vib)   ...       0.00 
freq.    1727.64  E(vib)   ...       0.00 
freq.    2995.39  E(vib)   ...       0.00 
freq.    3038.66  E(vib)   ...       0.00 
freq.    3136.08  E(vib)   ...       0.00 
freq.    3547.59  E(vib)   ...       0.00 

------------
INNER ENERGY
------------

The inner energy is: U= E(el) + E(ZPE) + E(vib) + E(rot) + E(trans)
    E(el)   - is the total energy from the electronic structure calculation
              = E(kin-el) + E(nuc-el) + E(el-el) + E(nuc-nuc)
    E(ZPE)  - the the zero temperature vibrational energy from the frequency calculation
    E(vib)  - the the finite temperature correction to E(ZPE) due to population
              of excited vibrational states
    E(rot)  - is the rotational thermal energy
    E(trans)- is the translational thermal energy

Summary of contributions to the inner energy U:
Electronic energy                ...   -342.38002593 Eh
Zero point energy                ...      0.07004925 Eh      43.96 kcal/mol
Thermal vibrational correction   ...      0.00324032 Eh       2.03 kcal/mol
Thermal rotational correction    ...      0.00141627 Eh       0.89 kcal/mol
Thermal translational correction ...      0.00141627 Eh       0.89 kcal/mol
-----------------------------------------------------------------------
Total thermal energy                   -342.30390382 Eh


Summary of corrections to the electronic energy:
(perhaps to be used in another calculation)
Total thermal correction                  0.00607287 Eh       3.81 kcal/mol
Non-thermal (ZPE) correction              0.07004925 Eh      43.96 kcal/mol
-----------------------------------------------------------------------
Total correction                          0.07612212 Eh      47.77 kcal/mol


--------
ENTHALPY
--------

The enthalpy is H = U + kB*T
                kB is Boltzmann's constant
Total thermal energy              ...   -342.30390382 Eh 
Thermal Enthalpy correction       ...      0.00094421 Eh       0.59 kcal/mol
-----------------------------------------------------------------------
Total Enthalpy                    ...   -342.30295961 Eh


Note: Only C1 symmetry has been detected, increase convergence thresholds 
      if your molecule has a higher symmetry. Symmetry factor of 1.0 is   
      used for the rotational entropy correction. 
 

Note: Rotational entropy computed according to Herzberg 
Infrared and Raman Spectra, Chapter V,1, Van Nostrand Reinhold, 1945 
Point Group:  C1, Symmetry Number:   1  
Rotational constants in cm-1:     0.180281     0.119815     0.072965 

Vibrational entropy computed according to the QRRHO of S. Grimme
Chem.Eur.J. 2012 18 9955 using a reference frequency of 100.0 cm-1


-------
ENTROPY
-------

The entropy contributions are T*S = T*(S(el)+S(vib)+S(rot)+S(trans))
     S(el)   - electronic entropy
     S(vib)  - vibrational entropy
     S(rot)  - rotational entropy
     S(trans)- translational entropy
The entropies will be listed as multiplied by the temperature to get
units of energy

Electronic entropy                ...      0.00065446 Eh      0.41 kcal/mol
Vibrational entropy               ...      0.00541646 Eh      3.40 kcal/mol
Rotational entropy                ...      0.01255712 Eh      7.88 kcal/mol
Translational entropy             ...      0.01869119 Eh     11.73 kcal/mol
-----------------------------------------------------------------------
Final entropy term                ...      0.03731924 Eh     23.42 kcal/mol

In case the symmetry of your molecule has not been determined correctly
or in case you have a reason to use a different symmetry number we print 
out the resulting rotational entropy values for sn=1,12:

 non-linear molecules -----------------------------------
|  sn= 1 | S(rot)=       0.01255712 Eh      7.88 kcal/mol|
|  sn= 2 | S(rot)=       0.01190267 Eh      7.47 kcal/mol|
|  sn= 3 | S(rot)=       0.01151984 Eh      7.23 kcal/mol|
|  sn= 4 | S(rot)=       0.01124821 Eh      7.06 kcal/mol|
|  sn= 5 | S(rot)=       0.01103752 Eh      6.93 kcal/mol|
|  sn= 6 | S(rot)=       0.01086538 Eh      6.82 kcal/mol|
|  sn= 7 | S(rot)=       0.01071983 Eh      6.73 kcal/mol|
|  sn= 8 | S(rot)=       0.01059376 Eh      6.65 kcal/mol|
|  sn= 9 | S(rot)=       0.01048255 Eh      6.58 kcal/mol|
|  sn=10 | S(rot)=       0.01038307 Eh      6.52 kcal/mol|
|  sn=11 | S(rot)=       0.01029308 Eh      6.46 kcal/mol|
|  sn=12 | S(rot)=       0.01021092 Eh      6.41 kcal/mol|
 linear molecules ---------------------------------------
|  Dinfh | S(rot)=       0.00779746 Eh      4.89 kcal/mol|
|  Cinfv | S(rot)=       0.00845191 Eh      5.30 kcal/mol|
 --------------------------------------------------------


-------------------
GIBBS FREE ENERGY
-------------------

The Gibbs free energy is G = H - T*S

Total enthalpy                    ...   -342.30295961 Eh 
Total entropy correction          ...     -0.03731924 Eh    -23.42 kcal/mol
-----------------------------------------------------------------------
Final Gibbs free energy         ...   -342.34027885 Eh

For completeness - the Gibbs free energy minus the electronic energy
G-E(el)                           ...      0.03974709 Eh     24.94 kcal/mol


Maximum memory used throughout the entire PROP-calculation: 31.6 MB

--------------------------------
SUGGESTED CITATIONS FOR THIS RUN
--------------------------------

Below you find a list of papers that are relevant to this ORCA run
We neither can nor want to force you to cite these papers, but we appreciate if you do
You receive ORCA, which is the product of decades of hard work by many enthusiastic individuals, for free
The only thing we kindly ask in return is that you cite our papers,
We deeply appreciate it, if you show your appreciation for ORCA by not just citing the generic ORCA reference.

Please note that relegating all ORCA citations to the supporting information does *not* help us.
SI sections are not indexed - citations you put there will not count into any citation statistics
But we need these citations in order to attract the funding resources that allow us to do what we are doing

Therefore, if you are a happy ORCA user, please consider citing a few of the papers listed below in the main body of your paper

In addition to the list printed below, the program has created the file d0_freq_0_wat.bibtex that contains the list in bibtex format
You can import this file easily into all common literature databanks and citation aid programs


List of essential papers. We consider these as the minimum necessary citations

  1. Neese, F.
     Software update: the ORCA program system, version 6.0
     WIRES Comput. Molec. Sci. 2025 15(1), e70019
     doi.org/10.1002/wcms.7019

List of papers to cite with high priority. The work reported in these papers was absolutely
necessary for this run to complete.
Our perspective: the developers of density functionals and basis sets usually get cited in chemistry papers
Good! But without the algorithms to do something with them, the functionals or basis sets would not do anything.
Hence, in our opinion, the algorithm design and method developments papers are equally worthy of getting cited

  1. Bykov, D.; Petrenko, T.; Izsak, R.; Kossmann, S.; Becker, U.; Valeev, E.; Neese, F.
     Efficient implementation of the analytic second derivatives of Hartree-Fock and hybrid DFT energies: a detailed analysis of different approximations
     Molec. Phys. 2015 113 , 1961-1977
     doi.org/10.1080/00268976.2015.1025114
  2. Lehtola, S.; Steigemann, C.; Oliveira, M.; Marques, M.
     Recent developments in Libxc - A comprehensive library of functionals for density functional theory
     Software X 2018 7 , 
     doi.org/10.1016/j.softx.2017.11.002
  3. Neese, F.
     The SHARK Integral Generation and Digestion System
     J. Comp. Chem. 2022 44(3), 381
     doi.org/10.1002/jcc.26942

List of suggested additional citations. These are papers that are important in the 'surrounding' of 
of this run, or papers that preceded the highly important papers. If you like your results we are grateful for a citation.

  1. Neese, F.
     The ORCA program system
     WIRES Comput. Molec. Sci. 2012 2(1), 73-78
     doi.org/10.1002/wcms.81
  2. Neese, F.
     Software update: the ORCA program system, version 4.0
     WIRES Comput. Molec. Sci. 2018 8(1), 1-6
     doi.org/10.1002/wcms.1327
  3. Neese, F.; Wennmohs, F.; Becker, U.; Riplinger, C.
     The ORCA quantum chemistry program package
     J. Chem. Phys. 2020 152(22), 224108
     doi.org/10.1063/5.0004608
  4. Neese, F.
     Software update: The ORCA program system—Version 5.0
     WIRES Comput. Molec. Sci. 2022 12(1), e1606
     doi.org/10.1002/wcms.1606

List of optional additional citations

  1. Neese, F.
     Approximate second-order SCF convergence for spin unrestricted wavefunctions
     Chem. Phys. Lett. 2000 325(1-3), 93-98
     doi.org/10.1016/s0009-2614(00)00662-x

Timings for individual modules:

Sum of individual times          ...     1253.997 sec (=  20.900 min)
Startup calculation              ...       12.286 sec (=   0.205 min)   1.0 %
SCF iterations                   ...       62.424 sec (=   1.040 min)   5.0 %
Property integrals               ...      150.002 sec (=   2.500 min)  12.0 %
SCF Response                     ...      889.918 sec (=  14.832 min)  71.0 %
Property calculations            ...      123.214 sec (=   2.054 min)   9.8 %
SCF Gradient evaluation          ...       16.154 sec (=   0.269 min)   1.3 %
                             ****ORCA TERMINATED NORMALLY****
TOTAL RUN TIME: 0 days 0 hours 20 minutes 55 seconds 490 msec
