
                                 *****************
                                 * O   R   C   A *
                                 *****************

                                            #,                                       
                                            ###                                      
                                            ####                                     
                                            #####                                    
                                            ######                                   
                                           ########,                                 
                                     ,,################,,,,,                         
                               ,,#################################,,                 
                          ,,##########################################,,             
                       ,#########################################, ''#####,          
                    ,#############################################,,   '####,        
                  ,##################################################,,,,####,       
                ,###########''''           ''''###############################       
              ,#####''   ,,,,##########,,,,          '''####'''          '####       
            ,##' ,,,,###########################,,,                        '##       
           ' ,,###''''                  '''############,,,                           
         ,,##''                                '''############,,,,        ,,,,,,###''
      ,#''                                            '''#######################'''  
     '                                                          ''''####''''         
             ,#######,   #######,   ,#######,      ##                                
            ,#'     '#,  ##    ##  ,#'     '#,    #''#        ,####,    ,#,          
            ##       ##  ##   ,#'  ##            #'  '#       #'       ,# #          
            ##       ##  #######   ##           ,######,      #####,      #          
            '#,     ,#'  ##    ##  '#,     ,#' ,#      #,     #,   #      #          
             '#######'   ##     ##  '#######'  #'      '#     '####' #    #          



                #########################################################
                #                        -***-                          #
                #          Department of theory and spectroscopy        #
                #                                                       #
                #                      Frank Neese                      #
                #                                                       #
                #     Directorship, Architecture, Infrastructure        #
                #                    SHARK, DRIVERS                     #
                #        Core code/Algorithms in most modules           #
                #                                                       #
                #        Max Planck Institute fuer Kohlenforschung      #
                #                Kaiser Wilhelm Platz 1                 #
                #                 D-45470 Muelheim/Ruhr                 #
                #                      Germany                          #
                #                                                       #
                #                  All rights reserved                  #
                #                        -***-                          #
                #########################################################


                         Program Version 6.1.0  -  RELEASE   -
                                (GIT: $679e74b$)
                          ($2025-06-10 18:02:51 +0200$)


 With contributions from (in alphabetic order):
[Max-Planck-Institut fuer Kohlenforschung]                               
  Daniel Aravena         : Magnetic Suceptibility                        
  Michael Atanasov       : Ab Initio Ligand Field Theory (pilot matlab implementation)
  Alexander A. Auer      : GIAO ZORA, VPT2 properties, NMR spectrum      
  Ute Becker             : All parallelization in ORCA, NUMFREQ, NUMCALC 
  Giovanni Bistoni       : ED, misc. LED, open-shell LED, HFLD           
  Dmytro Bykov           : pre 5.0 version of the SCF Hessian            
  Marcos Casanova-Páez   : Triplet and SCS-CIS(D). UHF-(DLPNO)-IP/EA/STEOM-CCSD. UHF-CVS-IP/STEOM-CCSD   
  Vijay G. Chilkuri      : MRCI spin determinant printing, contributions to CSF-ICE 
  Pauline Colinet        : FMM embedding                                 
  Dipayan Datta          : RHF DLPNO-CCSD density                        
  Achintya Kumar Dutta   : EOM-CC, STEOM-CC                              
  Nicolas Foglia         : Exact transition moments, OPA infrastructure, MCD improvements    
  Dmitry Ganyushin       : Spin-Orbit,Spin-Spin,Magnetic field MRCI      
  Miquel Garcia-Rates    : C-PCM and meta-GGA Hessian, CCSD/C-PCM, Gaussian charge scheme 
  Tiago L. C. Gouveia    : GS-ROHF, GS-ROCIS                             
  Yang Guo               : DLPNO-NEVPT2, F12-NEVPT2, CIM, IAO-localization        
  Andreas Hansen         : Spin unrestricted coupled pair/coupled cluster methods 
  Ingolf Harden          : AUTO-CI MPn and infrastructure                
  Benjamin Helmich-Paris : MC-RPA, TRAH-(SCF,CASSCF), AVAS, COSX integrals, SCF dyn. polar., MC-PDFT, srDFT 
  Lee Huntington         : MR-EOM, pCC                                   
  Robert Izsak           : Overlap fitted RIJCOSX, COSX-SCS-MP3, EOM     
  Riya Kayal             : Wick's Theorem for AUTO-CI, AUTO-CI UHF-CCSDT 
  Emily Kempfer          : AUTO-CI RHF CISDT and CCSDT, approximate NEVPT4
  Christian Kollmar      : KDIIS, OOCD, Brueckner-CCSD(T), CCSD density, CASPT2, CASPT2-K, improved NEVPT2 
  Axel Koslowski         : Symmetry handling                             
  Simone Kossmann        : meta-GGA functionals, TD-DFT gradient, OOMP2, (MP2 Hessian; deprecated post 5.0) 
  Lucas Lang             : DCDCAS, Hyperfine gauge corrections, ICE-SOC+SSC
  Marvin Lechner         : AUTO-CI (C++ implementation), FIC-MRCC        
  Spencer Leger          : CASSCF response                               
  Dagmar Lenk            : GEPOL surface, SMD, ORCA-2-JSON               
  Dimitrios Liakos       : Extrapolation schemes; Compound Job, Property file
  Dimitrios Manganas     : Further ROCIS development; embedding schemes. LFT, Crystal Embedding 
  Dimitrios Pantazis     : SARC Basis sets                               
  Anastasios Papadopoulos: AUTO-CI, single reference methods and gradients 
  Taras Petrenko         : pre 6.0 DFT Hessian and TD-DFT gradient,  ECA, NRVS 
  Petra Pikulova         : Analytic Raman intensities                    
  Peter Pinski           : DLPNO-MP2, DLPNO-MP2 Gradient                 
  Shashank Vittal Rao    : ES-AILFT, MagRelax                            
  Christoph Reimann      : Effective Core Potentials                     
  Marius Retegan         : Local ZFS, SOC                                
  Christoph Riplinger    : Optimizer, TS searches, QM/MM, DLPNO-CCSD(T), (RO)-DLPNO pert. Triples 
  Michael Roemelt        : Original ROCIS implementation, recursive CI coupling coefficients
  Masaaki Saitow         : Open-shell DLPNO-CCSD energy and density      
  Barbara Sandhoefer     : DKH picture change effects                    
  Yorick L. A. Schmerwitz: GMF and freeze-and-release deltaSCF, NEB S-IDPP initial path                    
  Kantharuban Sivalingam : CASSCF convergence/infrastructure, NEVPT2, NEVPT3, NEVPT4(SD), FIC-MRCI and CEPA variants
  Bernardo de Souza      : ESD, SOC TD-DFT                               
  Georgi L. Stoychev     : AutoAux, RI-MP2 NMR, DLPNO-MP2 response, X2C  
  Van Anh Tran           : RI-MP2 g-tensors                              
  Willem Van den Heuvel  : Paramagnetic NMR                              
  Zikuan Wang            : NOTCH, Electric field optimization            
  Frank Wennmohs         : Technical directorship and infrastructure     
  Hang Xu                : AUTO-CI-Response properties                   
                                                                         
[FACCTs GmbH]                                                            
  Markus Bursch, Nicolas Foglia, Miquel Garcia-Rates, Ingolf Harden, Hagen Neugebauer, Anastasios Papadopoulos, 
  Christoph Riplinger, Bernardo de Souza, Georgi L. Stoychev                                                    
                                                                 
  APM, various basis sets, CI-OPT, improved COSX, DLPNO-Multilevel,           
  DOCKER, DRACO, updates on ESD, Fragmentator, GOAT, IRC, LR-CPCM, L-BFGS, MBIS, meta-GGA TD-DFT gradient, ML-optimized integration grids, 
  MM, NACMEs, nearIR, NEB, NEB-TS, NL-DFT gradient (VV10), 2- and 3-layer-ONIOM, interface openCOSMO-RS, QMMM,   
  Crystal-QMMM, RESP, rigid body optimization, SF, symmetry and pop. for TD-DFT, various functionals, SOLVATOR                                   
                                                                         
[Other institutions]                                                     
  V. Asgeirsson          : NEB                                           
  Christoph Bannwarth    : sTDA-DFT, sTD-DFT, PBEh-3c, B97-3c, D3        
  Giovanni Bistoni       : ETS/NOCV, ADLD/ADEX, COVALED                  
  Martin Brehm           : Molecular dynamics                            
  Ronald Cardenas        : ETS/NOCV                                      
  Martina Colucci        : COVALED                                       
  Sebastian Ehlert       : rSCAN, r2SCAN, r2SCAN-3c, D4, dhf basis sets  
  Marvin Friede          : D4 for Fr, Ra, Ac-Lr                          
  Lars Goerigk           : TD-DFT with DH, B97 family of functionals     
  Stefan Grimme          : VdW corrections, initial TS optimization, DFT functionals, gCP, sTDA/sTD-DF 
  Waldemar Hujo          : DFT-NL                                        
  H. Jonsson             : NEB                                           
  Holger Kruse           : gCP                                           
  Marcel Mueller         : wB97X-3c, vDZP basis set                      
  Hagen Neugebauer       : wr2SCAN, Native XTB                           
  Gianluca Regni         : ADLD/ADEX                                     
  Tobias Risthaus        : pre 6.0 range-separated hybrid DFT and stability analysis
  Lukas Wittmann         : regularized MP2, r2SCAN double-hybrids, wr2SCAN        
                                                                         
We gratefully acknowledge several colleagues who have allowed us to      
interface, adapt or use parts of their codes:                            
  Ed Valeev, F. Pavosevic, A. Kumar             : LibInt (2-el integral package), F12 methods 
  Garnet Chan, S. Sharma, J. Yang, R. Olivares  : DMRG                   
  Ulf Ekstrom                                   : XCFun DFT Library      
  Mihaly Kallay                                 : mrcc  (arbitrary order and MRCC methods)
  Frank Weinhold                                : gennbo (NPA and NBO analysis)           
  Simon Mueller                                 : openCOSMO-RS                            
  Christopher J. Cramer and Donald G. Truhlar   : smd solvation model                     
  S Lehtola, MJT Oliveira, MAL Marques          : LibXC Library                           
  Liviu Ungur et al                             : ANISO software                          


 Your calculation uses the libint2 library for the computation of 2-el integrals
 For citations please refer to: http://libint.valeyev.net

 Your ORCA version has been built with support for libXC version: 7.0.0
 For citations please refer to: https://libxc.gitlab.io

 This ORCA versions uses:
   CBLAS   interface :  Fast vector & matrix operations
   LAPACKE interface :  Fast linear algebra routines
   SCALAPACK package :  Parallel linear algebra routines
   Shared memory     :  Shared parallel matrices
   BLAS/LAPACK       :  OpenBLAS 0.3.29  USE64BITINT DYNAMIC_ARCH NO_AFFINITY SkylakeX SINGLE_THREADED
        Core in use  :  SkylakeX
   Copyright (c) 2011-2014, The OpenBLAS Project


  ***********************************
  * Starting time: Wed Jan 28 12:01:03 2026
  * Host name:     bp1-compute035
  * Process ID:    2103959
  * Working dir.:  /user/work/kp22738/Diss/Orca/pyruvic_anion/dyson_orbitals/0_wat/15365185_s0_freq_0_wat
  ***********************************

NOTE: MaxCore=8000 MB was set to SCF,MP2,MDCI,CIPSI,MRCI,RASCI and CIS
      => If you want to overwrite this, your respective input block should be placed after the MaxCore statement
Using LibXC functional ID 471 : wB97X-D range-separated functional
[ 1]  J.-D. Chai and M. Head-Gordon.,  Phys. Chem. Chem. Phys. 10, 6615-6620 (2008)
Using LibXC functional ID 471 : wB97X-D range-separated functional
[ 1]  J.-D. Chai and M. Head-Gordon.,  Phys. Chem. Chem. Phys. 10, 6615-6620 (2008)
Your calculation utilizes LibXC
by S. Lehtola, C. Steigemann, M. J. T. Oliveira & M. A. L. Marques
Please cite in your paper:
Lehtola, S.; Steigemann, C.; Oliveira, M.J.T.; Marques, M. A. L. Software X, 7, (2018), 1.
   

================================================================================

----- Orbital basis set information -----
Your calculation utilizes the basis: aug-cc-pVDZ 
    H, B-Ne : Obtained from the ccRepo (grant-hill.group.shef.ac.uk/ccrepo) Feb. 2017
              R. A. Kendall, T. H. Dunning, Jr., R. J. Harrison, J. Chem. Phys. 96, 6796 (1992)
         He : Obtained from the ccRepo (grant-hill.group.shef.ac.uk/ccrepo) Feb. 2017
              D. E. Woon, T. H. Dunning, Jr., J. Chem. Phys. 100, 2975 (1994)
  Li-Be, Na : Obtained from the ccRepo (grant-hill.group.shef.ac.uk/ccrepo) Feb. 2017
              B. P. Prascher, D. E. Woon, K. A. Peterson, T. H. Dunning, Jr., A. K. Wilson, Theor. Chem. Acc. 128, 69 (2011)
         Mg : Obtained from the Peterson Research Group Website (tyr0.chem.wsu.edu/~kipeters) Feb. 2017
              B. P. Prascher, D. E. Woon, K. A. Peterson, T. H. Dunning, Jr., A. K. Wilson, Theor. Chem. Acc. 128, 69 (2011)
      Al-Ar : Obtained from the ccRepo (grant-hill.group.shef.ac.uk/ccrepo) Feb. 2017
              D. E. Woon, T. H. Dunning, Jr., J. Chem. Phys. 98, 1358 (1993)
      Sc-Zn : Obtained from the ccRepo (grant-hill.group.shef.ac.uk/ccrepo) Feb. 2017
              N. B. Balabanov, K. A. Peterson, J. Chem. Phys. 123, 064107 (2005)
              N. B. Balabanov, K. A. Peterson, J. Chem. Phys. 125, 074110 (2006)
      Ga-Kr : Obtained from the ccRepo (grant-hill.group.shef.ac.uk/ccrepo) Feb. 2017
              A. K. Wilson, D. E. Woon, K. A. Peterson, T. H. Dunning, Jr., J. Chem. Phys. 110, 7667 (1999)

================================================================================
                                        WARNINGS
                       Please study these warnings very carefully!
================================================================================


================================================================================
                                       INPUT FILE
================================================================================
NAME = s0_freq_0_wat.inp
|  1> ! aug-cc-pVDZ TightSCF DEFGRID3 Engrad ANFREQ
|  2> 
|  3> %PAL NPROCS 8 END
|  4> 
|  5> %maxcore 8000
|  6> 
|  7> %method
|  8> method dft
|  9> functional hyb_gga_xc_wb97x_d
| 10> end
| 11> 
| 12> * xyz 0 1
| 13>   C     -0.632075   -0.215377   -0.000041
| 14>   C      0.724963    0.275601   -0.000006
| 15>   C     -1.782459    0.756586   -0.000045
| 16>   H     -2.421252    0.599441    0.886501
| 17>   H     -2.421344    0.599396   -0.886518
| 18>   H     -1.415701    1.790817   -0.000074
| 19>   O     -0.837573   -1.488634    0.000082
| 20>   O      1.122316    1.451584   -0.000009
| 21>   O      1.635045   -0.757426    0.000019
| 22>   H      1.036465   -1.534650   -0.000046
| 23> * 
| 24> 
| 25>                          ****END OF INPUT****
================================================================================

                     *******************************
                     * Energy+Gradient Calculation *
                     *******************************

---------------------------------
CARTESIAN COORDINATES (ANGSTROEM)
---------------------------------
  C     -0.632075   -0.215377   -0.000041
  C      0.724963    0.275601   -0.000006
  C     -1.782459    0.756586   -0.000045
  H     -2.421252    0.599441    0.886501
  H     -2.421344    0.599396   -0.886518
  H     -1.415701    1.790817   -0.000074
  O     -0.837573   -1.488634    0.000082
  O      1.122316    1.451584   -0.000009
  O      1.635045   -0.757426    0.000019
  H      1.036465   -1.534650   -0.000046

----------------------------
CARTESIAN COORDINATES (A.U.)
----------------------------
  NO LB      ZA    FRAG     MASS         X           Y           Z
   0 C     6.0000    0    12.011   -1.194449   -0.407004   -0.000077
   1 C     6.0000    0    12.011    1.369982    0.520810   -0.000011
   2 C     6.0000    0    12.011   -3.368359    1.429740   -0.000085
   3 H     1.0000    0     1.008   -4.575503    1.132779    1.675244
   4 H     1.0000    0     1.008   -4.575677    1.132694   -1.675276
   5 H     1.0000    0     1.008   -2.675287    3.384154   -0.000140
   6 O     8.0000    0    15.999   -1.582784   -2.813111    0.000155
   7 O     8.0000    0    15.999    2.120870    2.743096   -0.000017
   8 O     8.0000    0    15.999    3.089787   -1.431328    0.000036
   9 H     1.0000    0     1.008    1.958635   -2.900068   -0.000087

--------------------------------
INTERNAL COORDINATES (ANGSTROEM)
--------------------------------
 C      0   0   0     0.000000000000     0.00000000     0.00000000
 C      1   0   0     1.443125611703     0.00000000     0.00000000
 C      1   2   0     1.506019727906   119.91524408     0.00000000
 H      3   1   2     1.103954191980   110.49514023   239.01990719
 H      3   1   2     1.103955216055   110.49766591   120.98971818
 H      3   1   2     1.097335496904   110.66909508     0.00000000
 O      1   2   3     1.289733627995   119.05840778   180.00764715
 O      2   1   3     1.241299892414   128.55978680     0.00000000
 O      2   1   3     1.376733100524   111.48940417   179.99880495
 H      9   2   1     0.981007220565   101.01870071     0.00000000

---------------------------
INTERNAL COORDINATES (A.U.)
---------------------------
 C      0   0   0     0.000000000000     0.00000000     0.00000000
 C      1   0   0     2.727112182966     0.00000000     0.00000000
 C      1   2   0     2.845964838024   119.91524408     0.00000000
 H      3   1   2     2.086171087236   110.49514023   239.01990719
 H      3   1   2     2.086173022457   110.49766591   120.98971818
 H      3   1   2     2.073663566179   110.66909508     0.00000000
 O      1   2   3     2.437243342620   119.05840778   180.00764715
 O      2   1   3     2.345716846728   128.55978680     0.00000000
 O      2   1   3     2.601648519494   111.48940417   179.99880495
 H      9   2   1     1.853834982267   101.01870071     0.00000000

---------------------
BASIS SET INFORMATION
---------------------
There are 3 groups of distinct atoms

 Group   1 Type C   : 18s5p2d contracted to 4s3p2d pattern {8811/311/11}
 Group   2 Type H   : 5s2p contracted to 3s2p pattern {311/11}
 Group   3 Type O   : 18s5p2d contracted to 4s3p2d pattern {8811/311/11}

Atom   0C    basis set group =>   1
Atom   1C    basis set group =>   1
Atom   2C    basis set group =>   1
Atom   3H    basis set group =>   2
Atom   4H    basis set group =>   2
Atom   5H    basis set group =>   2
Atom   6O    basis set group =>   3
Atom   7O    basis set group =>   3
Atom   8O    basis set group =>   3
Atom   9H    basis set group =>   2


           ************************************************************
           *        Program running with 8 parallel MPI-processes     *
           *              working on a common directory               *
           ************************************************************
------------------------------------------------------------------------------
                             ORCA STARTUP CALCULATIONS
------------------------------------------------------------------------------
------------------------------------------------------------------------------
                   ___                                                        
                  /   \      - P O W E R E D   B Y -                         
                 /     \                                                     
                 |  |  |   _    _      __       _____    __    __             
                 |  |  |  | |  | |    /  \     |  _  \  |  |  /  |          
                  \  \/   | |  | |   /    \    | | | |  |  | /  /          
                 / \  \   | |__| |  /  /\  \   | |_| |  |  |/  /          
                |  |  |   |  __  | /  /__\  \  |    /   |      \           
                |  |  |   | |  | | |   __   |  |    \   |  |\   \          
                \     /   | |  | | |  |  |  |  | |\  \  |  | \   \       
                 \___/    |_|  |_| |__|  |__|  |_| \__\ |__|  \__/        
                                                                              
                      - O R C A' S   B I G   F R I E N D -                    
                                      &                                       
                       - I N T E G R A L  F E E D E R -                       
                                                                              
 v1 FN, 2020, v2 2021, v3 2022-2024                                           
------------------------------------------------------------------------------


----------------------
SHARK INTEGRAL PACKAGE
----------------------

Number of atoms                             ...     10
Number of basis functions                   ...    210
Number of shells                            ...    110
Maximum angular momentum                    ...      2
Integral batch strategy                     ... SHARK/LIBINT Hybrid
RI-J (if used) integral strategy            ... SPLIT-RIJ (Revised 2003 algorithm where possible)
Printlevel                                  ...      1
Contraction scheme used                     ... PARTIAL GENERAL contraction
Prescreening option                         ... SCHWARTZ
   Thresh                                   ... 2.500e-11
   Tcut                                     ... 2.500e-12
   Tpresel                                  ... 2.500e-12 
Coulomb Range Separation                    ... NOT USED
Exchange Range Separation                   ... Long Range
   Mu parameter                             ... 2.000e-01
   Scaling (regular/separated)              ... 2.220e-01 7.780e-01
Robust (split-)RI terms used:
  metric    (central integrals)             ... YES
  density   (r.h.s.  integrals)             ... YES
  potential (l.h.s.  integrals)             ... YES
Multipole approximations                    ... NOT USED
Finite Nucleus Model                        ... NOT USED
CABS basis                                  ... NOT available
Auxiliary Coulomb fitting basis             ... NOT available
Auxiliary J/K fitting basis                 ... NOT available
Auxiliary Correlation fitting basis         ... NOT available
Auxiliary 'external' fitting basis          ... NOT available

Checking pre-screening integrals            ... done (  0.0 sec) Dimension = 110
Save PGC pre-screening integrals            ... done (  0.0 sec) Dimension = 110
Calculate PGC overlap integrals             ... done (  0.0 sec) Dimension = 74
Calculating pre-screening integrals (ORCA)  ... done (  0.1 sec) Dimension = 74
Shell pair information
Shell pair cut-off parameter TPreSel        ...   2.5e-12
Total number of shell pairs                 ...      6105
Shell pairs after pre-screening             ...      5248
Total number of primitive shell pairs       ...      8545
Primitive shell pairs kept                  ...      6882
          la=0 lb=0:   1891 shell pairs
          la=1 lb=0:   1785 shell pairs
          la=1 lb=1:    351 shell pairs
          la=2 lb=0:    831 shell pairs
          la=2 lb=1:    312 shell pairs
          la=2 lb=2:     78 shell pairs

Checking whether 4 symmetric matrices of dimension 210 fit in memory
:Max Core in MB      =   8000.00
 MB in use           =      6.96
 MB left             =   7993.04
 MB needed           =      0.68
 Data fit in memory  = YES
Calculating Nuclear repulsion               ... done (  0.0 sec) ENN=    228.280983742235 Eh

Diagonalization of the overlap matrix:
Smallest eigenvalue                        ... 4.185e-05
Time for diagonalization                   ...    0.006 sec
Threshold for overlap eigenvalues          ... 1.000e-07
Number of eigenvalues below threshold      ... 0
Time for construction of square roots      ...    0.028 sec
Total time needed                          ...    0.040 sec

-------------------
DFT GRID GENERATION
-------------------

General Integration Accuracy     IntAcc      ... 4.959
Radial Grid Type                 RadialGrid  ... OptM3 with GC (2021)
Angular Grid (max. ang.)         AngularGrid ... 6 (Lebedev-590)
Angular grid pruning method      GridPruning ... 4 (adaptive)
Weight generation scheme         WeightScheme... mBecke (2022)
Basis function cutoff            BFCut       ... 1.0000e-11
Integration weight cutoff        WCut        ... 1.0000e-14
Partially contracted basis set               ... off
Rotationally invariant grid construction     ... off
Angular grids for H and He will be reduced by one unit
Diffuse basis detected: some atoms will have their outermost
                        angular grid increased by 1.

Total number of grid points                  ...   128396
Total number of batches                      ...     2011
Average number of points per batch           ...       63
Average number of grid points per atom       ...    12840

---------------------
SHARK GRID GENERATION
---------------------

General Integration Accuracy     IntAcc      ... 4.959
Radial Grid Type                 RadialGrid  ... OptM3 with GC (2021)
Angular Grid (max. ang.)         AngularGrid ... 6 (Lebedev-590)
Angular grid pruning method      GridPruning ... 4 (adaptive)
Weight generation scheme         WeightScheme... mBecke (2022)
Basis function cutoff            BFCut       ... 1.0000e-11
Integration weight cutoff        WCut        ... 1.0000e-14
Partially contracted basis set               ... off
Rotationally invariant grid construction     ... off
Angular grids for H and He will be reduced by one unit
Diffuse basis detected: some atoms will have their outermost
                        angular grid increased by 1.
Steep s-basis detected: some atoms will have their radial
                        grid points doubled.

Total number of grid points                  ...   217811
Total number of batches                      ...     3407
Average number of points per batch           ...       63
Average number of grid points per atom       ...    21781
Grids setup in   7.6 sec
Initializing property integral containers    ... done (  0.0 sec)

SHARK setup successfully completed in   8.1 seconds

Maximum memory used throughout the entire STARTUP-calculation: 51.8 MB


           ************************************************************
           *        Program running with 8 parallel MPI-processes     *
           *              working on a common directory               *
           ************************************************************
-------------------------------------------------------------------------------
                                 ORCA GUESS
                   Start orbitals & Density for SCF / CASSCF
-------------------------------------------------------------------------------

------------
SCF SETTINGS
------------
Hamiltonian:
 Density Functional     Method          .... DFT(GTOs)
  Functional kind                       .... Exchange-Correlation
  Functional name                       .... wB97X-D range-separated functional
  Functional family                     .... Hybrid GGA
  Functional refs                              
    [ 0] J.-D. Chai and M. Head-Gordon.,  Phys. Chem. Chem. Phys. 10, 6615-6620 (2008), doi: 10.1039/B810189B
  Fraction of HF Exchange (short range) .... 0.2220
  Fraction of HF Exchange ( int64 range )  .... 1.0000
  Range separation parameter mu         .... 0.2000
  Functional external parameters        .... 18
    Parameter  0 _cx0       =  7.779640e-01 : u^0 coefficient for exchange
    Parameter  1 _cx1       =  6.611600e-01 : u^1 coefficient for exchange
    Parameter  2 _cx2       =  5.745410e-01 : u^2 coefficient for exchange
    Parameter  3 _cx3       = -5.256710e+00 : u^3 coefficient for exchange
    Parameter  4 _cx4       =  1.163860e+01 : u^4 coefficient for exchange
    Parameter  5 _css0      =  1.000000e+00 : u^0 coefficient for same-spin correlation
    Parameter  6 _css1      = -6.905390e+00 : u^1 coefficient for same-spin correlation
    Parameter  7 _css2      =  3.133430e+01 : u^2 coefficient for same-spin correlation
    Parameter  8 _css3      = -5.105330e+01 : u^3 coefficient for same-spin correlation
    Parameter  9 _css4      =  2.644230e+01 : u^4 coefficient for same-spin correlation
    Parameter 10 _cos0      =  1.000000e+00 : u^0 coefficient for opposite-spin correlation
    Parameter 11 _cos1      =  1.794130e+00 : u^1 coefficient for opposite-spin correlation
    Parameter 12 _cos2      = -1.204770e+01 : u^2 coefficient for opposite-spin correlation
    Parameter 13 _cos3      =  1.408470e+01 : u^3 coefficient for opposite-spin correlation
    Parameter 14 _cos4      = -8.508090e+00 : u^4 coefficient for opposite-spin correlation
    Parameter 15 _alpha     =  1.000000e+00 : fraction of HF exchange
    Parameter 16 _beta      = -7.779640e-01 : fraction of short-range exchange
    Parameter 17 _omega     =  2.000000e-01 : range-separation constant
 Long-range corrected/Screened/Range-Separated Hybrid DFT is turned on
   Amount of maximum screened exact exchange              ....  0.777964
   Range separation parameter mu (erf(mu*r12)/r12)        ....  0.200000


General Settings:
 Integral files         IntName         .... s0_freq_0_wat
 Hartree-Fock type      HFTyp           .... RHF
 Total Charge           Charge          ....    0
 Multiplicity           Mult            ....    1
 Number of Electrons    NEL             ....   46
 Basis Dimension        Dim             ....  174
 Nuclear Repulsion      ENuc            ....    228.2809837422 Eh

Convergence Acceleration:
 AO-DIIS                CNVDIIS         .... on
   Start iteration      DIISMaxIt       ....    12
   Startup error        DIISStart       ....  0.200000
   # of expansion vecs  DIISMaxEq       ....     5
   Bias factor          DIISBfac        ....   1.050
   Max. coefficient     DIISMaxC        ....  10.000
 MO-DIIS                CNVKDIIS        .... off
 Trust-Rad. Augm. Hess. CNVTRAH         .... auto
   Auto Start mean grad. ratio tolernc. ....  1.125000
   Auto Start start iteration           ....    50
   Auto Start num. interpolation iter.  ....    10
   Max. Number of Micro iterations      ....    24
   Max. Number of Macro iterations      .... Maxiter - #DIIS iter
   Number of Davidson start vectors     ....     2
   Converg. threshold    (grad. norm)   ....   1.000e-05
   Grad. Scal. Fac. for Micro threshold ....   0.100
   Minimum threshold for Micro iter.    ....   1.000e-02
   NR start threshold (gradient norm)   ....   1.000e-04
   Initial trust radius                 ....   0.400
   Minimum AH scaling param. (alpha)    ....   1.000
   Maximum AH scaling param. (alpha)    .... 1000.000
   Quad. conv. algorithm                .... NR
   White noise on init. David. guess    .... on
   Maximum white noise                  ....   0.010
   Pseudo random numbers                .... off
   Inactive MOs                         .... canonical
   Orbital update algorithm             .... Taylor
   Preconditioner                       .... Diag
   Full preconditioner red. dimension   ....   250
 SOSCF                 CNVSOSCF           .... on
   Start iteration     SOSCFMaxIt         ....   150
   Startup grad/error  SOSCFStart         ....  0.003300
   Hessian update      SOSCFHessUp        .... L-BFGS
   Autom. constraints  SOSCFAutoConstrain .... off
 Level Shifting         CNVShift        .... on
   Level shift para.    LevelShift      ....    0.2500
   Turn off err/grad.   ShiftErr        ....    0.0010
 Zerner damping         CNVZerner       .... off
 Static damping         CNVDamp         .... on
   Fraction old density DampFac         ....    0.7000
   Max. Damping (<1)    DampMax         ....    0.9800
   Min. Damping (>=0)   DampMin         ....    0.0000
   Turn off err/grad.   DampErr         ....    0.1000

SCF Procedure:
 Maximum # iterations   MaxIter         ....   125
 SCF integral mode      SCFMode         .... Direct
   Integral package                     .... SHARK and LIBINT hybrid scheme
 Reset frequency        DirectResetFreq ....    20
 Integral Threshold     Thresh          ....  2.500e-11 Eh
 Primitive CutOff       TCut            ....  2.500e-12 Eh

Convergence Tolerance:
 Convergence Check Mode ConvCheckMode   .... Total+1el-Energy
 Convergence forced     ConvForced      .... 0
 Energy Change          TolE            ....  1.000e-08 Eh
 1-El. energy change                    ....  1.000e-05 Eh
 Orbital Gradient       TolG            ....  1.000e-05
 Orbital Rotation angle TolX            ....  1.000e-05
 DIIS Error             TolErr          ....  5.000e-07

------------------------------
INITIAL GUESS: MODEL POTENTIAL
------------------------------
Loading Hartree-Fock densities                     ... done
Calculating cut-offs                               ... done
Initializing the effective Hamiltonian             ... done
Setting up the integral package (SHARK)            ... done
Starting the Coulomb interaction                   ... done (   0.0 sec)
Making the grid                                    ... done (   0.2 sec)
Mapping shells                                     ... done
Starting the XC term evaluation                    ... done (   0.2 sec)
  promolecular density results
     # of electrons  =     45.997777632
     EX+EC           =    -29.730021498
Transforming the Hamiltonian                       ... done (   0.0 sec)
Diagonalizing the Hamiltonian                      ... done (   0.0 sec)
Back transforming the eigenvectors                 ... done (   0.0 sec)
Now organizing SCF variables                       ... done
                      ------------------
                      INITIAL GUESS DONE (   0.6 sec)
                      ------------------
             **** ENERGY FILE WAS UPDATED (s0_freq_0_wat.en.tmp) ****
Finished Guess after   1.3 sec
Maximum memory used throughout the entire GUESS-calculation: 9.9 MB


           ************************************************************
           *        Program running with 8 parallel MPI-processes     *
           *              working on a common directory               *
           ************************************************************

-------------------------------------------------------------------------------------------
                                      ORCA LEAN-SCF
                              memory conserving SCF solver
-------------------------------------------------------------------------------------------

----------------------------------------D-I-I-S--------------------------------------------
Iteration    Energy (Eh)           Delta-E    RMSDP     MaxDP     DIISErr   Damp  Time(sec)
-------------------------------------------------------------------------------------------
               ***  Starting incremental Fock matrix formation  ***
    1    -342.2367269521037088     0.00e+00  9.20e-03  1.34e-01  1.11e-01  0.700   3.6
    2    -342.2709322284464406    -3.42e-02  6.79e-03  9.63e-02  6.53e-02  0.700   3.4
                               ***Turning on AO-DIIS***
    3    -342.2889663405637748    -1.80e-02  3.66e-03  3.88e-02  4.10e-02  0.700   3.4
    4    -342.3000645755139431    -1.11e-02  8.66e-03  9.12e-02  2.88e-02  0.000   3.4
    5    -342.3248417717552456    -2.48e-02  1.12e-03  1.64e-02  4.30e-03  0.000   3.5
    6    -342.3249521908087445    -1.10e-04  4.56e-04  6.93e-03  3.68e-03  0.000   3.3
                              *** Initializing SOSCF ***
---------------------------------------S-O-S-C-F--------------------------------------
Iteration    Energy (Eh)           Delta-E    RMSDP     MaxDP     MaxGrad    Time(sec)
--------------------------------------------------------------------------------------
    7    -342.3249877411296893    -3.56e-05  3.04e-04  5.38e-03  1.36e-03     3.2
               *** Restarting incremental Fock matrix formation ***
    8    -342.3249984020293368    -1.07e-05  1.67e-04  3.02e-03  2.99e-04     3.4
    9    -342.3250010681973663    -2.67e-06  1.30e-04  2.29e-03  1.98e-04     3.0
   10    -342.3250014515579096    -3.83e-07  5.38e-05  8.55e-04  1.25e-04     2.9
   11    -342.3250017268046577    -2.75e-07  2.27e-05  3.85e-04  3.49e-05     2.9
   12    -342.3250017477832898    -2.10e-08  1.35e-05  1.58e-04  1.63e-05     2.7
   13    -342.3250017620235894    -1.42e-08  8.73e-06  8.01e-05  6.48e-06     2.7
   14    -342.3250017625724695    -5.49e-10  8.15e-06  1.09e-04  3.75e-06     2.6
                 **** Energy Check signals convergence ****

               *****************************************************
               *                     SUCCESS                       *
               *           SCF CONVERGED AFTER  14 CYCLES          *
               *****************************************************

             **** ENERGY FILE WAS UPDATED (s0_freq_0_wat.en.tmp) ****

----------------
TOTAL SCF ENERGY
----------------

Total Energy       :       -342.32500176273174 Eh           -9315.13687 eV

Components:
Nuclear Repulsion  :        228.28098374223524 Eh            6211.84137 eV
Electronic Energy  :       -570.60598550496695 Eh          -15526.97824 eV
One Electron Energy:       -919.08622681582290 Eh          -25009.60770 eV
Two Electron Energy:        348.48024131085594 Eh            9482.62945 eV

Virial components:
Potential Energy   :       -682.30796210612436 Eh          -18566.54355 eV
Kinetic Energy     :        339.98296034339262 Eh            9251.40668 eV
Virial Ratio       :          2.00688870235430

DFT components:
N(Alpha)           :       23.000020435783 electrons
N(Beta)            :       23.000020435783 electrons
N(Total)           :       46.000040871566 electrons
E(XC)              :      -30.187479916743 Eh       

---------------
SCF CONVERGENCE
---------------

  Last Energy change         ...    5.4888e-10  Tolerance :   1.0000e-08
  Last MAX-Density change    ...    1.0890e-04  Tolerance :   1.0000e-07
  Last RMS-Density change    ...    8.1473e-06  Tolerance :   5.0000e-09
  Last DIIS Error            ...    1.3598e-03  Tolerance :   5.0000e-07
  Last Orbital Gradient      ...    3.7545e-06  Tolerance :   1.0000e-05
  Last Orbital Rotation      ...    6.9671e-06  Tolerance :   1.0000e-05


----------------
ORBITAL ENERGIES
----------------

  NO   OCC          E(Eh)            E(eV) 
   0   2.0000     -19.334379      -526.1152 
   1   2.0000     -19.329321      -525.9776 
   2   2.0000     -19.301478      -525.2199 
   3   2.0000     -10.466413      -284.8056 
   4   2.0000     -10.451872      -284.4099 
   5   2.0000     -10.337887      -281.3082 
   6   2.0000      -1.231398       -33.5080 
   7   2.0000      -1.169437       -31.8220 
   8   2.0000      -1.140795       -31.0426 
   9   2.0000      -0.899124       -24.4664 
  10   2.0000      -0.805802       -21.9270 
  11   2.0000      -0.696660       -18.9571 
  12   2.0000      -0.630486       -17.1564 
  13   2.0000      -0.591686       -16.1006 
  14   2.0000      -0.587310       -15.9815 
  15   2.0000      -0.550359       -14.9760 
  16   2.0000      -0.532147       -14.4805 
  17   2.0000      -0.524193       -14.2640 
  18   2.0000      -0.493314       -13.4238 
  19   2.0000      -0.469700       -12.7812 
  20   2.0000      -0.434981       -11.8364 
  21   2.0000      -0.426985       -11.6189 
  22   2.0000      -0.382403       -10.4057 
  23   0.0000      -0.067460        -1.8357 
  24   0.0000       0.030862         0.8398 
  25   0.0000       0.051827         1.4103 
  26   0.0000       0.053755         1.4627 
  27   0.0000       0.061525         1.6742 
  28   0.0000       0.089764         2.4426 
  29   0.0000       0.098527         2.6811 
  30   0.0000       0.104866         2.8535 
  31   0.0000       0.116812         3.1786 
  32   0.0000       0.124020         3.3748 
  33   0.0000       0.130946         3.5632 
*Only the first 10 virtual orbitals were printed.

                    ********************************
                    * MULLIKEN POPULATION ANALYSIS *
                    ********************************

-----------------------
MULLIKEN ATOMIC CHARGES
-----------------------
   0 C :    0.200570
   1 C :    0.870010
   2 C :    0.549403
   3 H :    0.005638
   4 H :    0.005632
   5 H :   -0.187461
   6 O :   -0.662219
   7 O :   -0.499653
   8 O :   -0.471518
   9 H :    0.189599
Sum of atomic charges:    0.0000000

--------------------------------
MULLIKEN REDUCED ORBITAL CHARGES
--------------------------------
  0 C s       :     3.158660  s :     3.158660
      pz      :     0.673505  p :     2.321403
      px      :     0.829811
      py      :     0.818087
      dz2     :     0.011624  d :     0.319367
      dxz     :     0.062952
      dyz     :     0.020886
      dx2y2   :     0.152922
      dxy     :     0.070983

  1 C s       :     3.101610  s :     3.101610
      pz      :     0.737300  p :     1.922240
      px      :     0.564392
      py      :     0.620549
      dz2     :    -0.000410  d :     0.106140
      dxz     :     0.004941
      dyz     :     0.055032
      dx2y2   :     0.042713
      dxy     :     0.003864

  2 C s       :     3.007930  s :     3.007930
      pz      :     0.871504  p :     2.481345
      px      :     0.991025
      py      :     0.618816
      dz2     :    -0.007319  d :    -0.038678
      dxz     :    -0.017711
      dyz     :     0.003462
      dx2y2   :     0.006392
      dxy     :    -0.023501

  3 H s       :     0.994765  s :     0.994765
      pz      :     0.008443  p :    -0.000403
      px      :    -0.007198
      py      :    -0.001647

  4 H s       :     0.994783  s :     0.994783
      pz      :     0.008432  p :    -0.000414
      px      :    -0.007199
      py      :    -0.001648

  5 H s       :     1.177620  s :     1.177620
      pz      :    -0.010280  p :     0.009841
      px      :     0.020017
      py      :     0.000104

  6 O s       :     4.126582  s :     4.126582
      pz      :     1.355414  p :     4.498652
      px      :     1.860548
      py      :     1.282690
      dz2     :     0.001359  d :     0.036985
      dxz     :     0.001051
      dyz     :     0.017335
      dx2y2   :     0.008951
      dxy     :     0.008290

  7 O s       :     4.031519  s :     4.031519
      pz      :     1.375687  p :     4.428973
      px      :     1.759958
      py      :     1.293328
      dz2     :     0.002389  d :     0.039161
      dxz     :     0.002314
      dyz     :     0.016696
      dx2y2   :     0.007538
      dxy     :     0.010225

  8 O s       :     3.981950  s :     3.981950
      pz      :     1.759358  p :     4.468892
      px      :     1.503455
      py      :     1.206079
      dz2     :     0.001303  d :     0.020676
      dxz     :     0.009729
      dyz     :     0.004088
      dx2y2   :     0.003712
      dxy     :     0.001843

  9 H s       :     0.734663  s :     0.734663
      pz      :     0.025230  p :     0.075739
      px      :     0.032754
      py      :     0.017754



                     *******************************
                     * LOEWDIN POPULATION ANALYSIS *
                     *******************************

----------------------
LOEWDIN ATOMIC CHARGES
----------------------
   0 C :   -0.245722
   1 C :   -0.348477
   2 C :    0.195088
   3 H :    0.014110
   4 H :    0.014109
   5 H :   -0.008007
   6 O :    0.116767
   7 O :    0.112053
   8 O :    0.254238
   9 H :   -0.104161

-------------------------------
LOEWDIN REDUCED ORBITAL CHARGES
-------------------------------
  0 C s       :     2.611437  s :     2.611437
      pz      :     0.584172  p :     2.467166
      px      :     0.956191
      py      :     0.926803
      dz2     :     0.100479  d :     1.167119
      dxz     :     0.128471
      dyz     :     0.165483
      dx2y2   :     0.367151
      dxy     :     0.405536

  1 C s       :     2.579363  s :     2.579363
      pz      :     0.645769  p :     2.445129
      px      :     0.900789
      py      :     0.898571
      dz2     :     0.118911  d :     1.323986
      dxz     :     0.097901
      dyz     :     0.238536
      dx2y2   :     0.405830
      dxy     :     0.462809

  2 C s       :     2.608037  s :     2.608037
      pz      :     0.943472  p :     2.804706
      px      :     0.917971
      py      :     0.943263
      dz2     :     0.066671  d :     0.392168
      dxz     :     0.089391
      dyz     :     0.028270
      dx2y2   :     0.111082
      dxy     :     0.096754

  3 H s       :     0.714435  s :     0.714435
      pz      :     0.115879  p :     0.271455
      px      :     0.086386
      py      :     0.069190

  4 H s       :     0.714439  s :     0.714439
      pz      :     0.115871  p :     0.271452
      px      :     0.086391
      py      :     0.069190

  5 H s       :     0.716650  s :     0.716650
      pz      :     0.073069  p :     0.291357
      px      :     0.090858
      py      :     0.127430

  6 O s       :     3.398659  s :     3.398659
      pz      :     1.235615  p :     4.314836
      px      :     1.659718
      py      :     1.419504
      dz2     :     0.020529  d :     0.169738
      dxz     :     0.001260
      dyz     :     0.026718
      dx2y2   :     0.061672
      dxy     :     0.059559

  7 O s       :     3.399098  s :     3.399098
      pz      :     1.262518  p :     4.325710
      px      :     1.615623
      py      :     1.447568
      dz2     :     0.018941  d :     0.163139
      dxz     :     0.003991
      dyz     :     0.031175
      dx2y2   :     0.051442
      dxy     :     0.057589

  8 O s       :     3.256578  s :     3.256578
      pz      :     1.556450  p :     4.312470
      px      :     1.481131
      py      :     1.274890
      dz2     :     0.023953  d :     0.176714
      dxz     :     0.014330
      dyz     :     0.017293
      dx2y2   :     0.045405
      dxy     :     0.075733

  9 H s       :     0.588805  s :     0.588805
      pz      :     0.113052  p :     0.515356
      px      :     0.231572
      py      :     0.170732



                      *****************************
                      * MAYER POPULATION ANALYSIS *
                      *****************************

  NA   - Mulliken gross atomic population
  ZA   - Total nuclear charge
  QA   - Mulliken gross atomic charge
  VA   - Mayer's total valence
  BVA  - Mayer's bonded valence
  FA   - Mayer's free valence

  ATOM       NA         ZA         QA         VA         BVA        FA
  0 C      5.7994     6.0000     0.2006     3.8404     3.8404     0.0000
  1 C      5.1300     6.0000     0.8700     2.9127     2.9127    -0.0000
  2 C      5.4506     6.0000     0.5494     3.8279     3.8279     0.0000
  3 H      0.9944     1.0000     0.0056     0.8970     0.8970    -0.0000
  4 H      0.9944     1.0000     0.0056     0.8970     0.8970     0.0000
  5 H      1.1875     1.0000    -0.1875     0.8787     0.8787     0.0000
  6 O      8.6622     8.0000    -0.6622     1.7219     1.7219     0.0000
  7 O      8.4997     8.0000    -0.4997     1.8204     1.8204    -0.0000
  8 O      8.4715     8.0000    -0.4715     1.8654     1.8654     0.0000
  9 H      0.8104     1.0000     0.1896     0.9897     0.9897     0.0000

  Mayer bond orders larger than 0.100000
B(  0-C ,  1-C ) :   0.6116 B(  0-C ,  2-C ) :   1.2960 B(  0-C ,  3-H ) :   0.1315 
B(  0-C ,  4-H ) :   0.1315 B(  0-C ,  5-H ) :   0.1635 B(  0-C ,  6-O ) :   1.5139 
B(  0-C ,  7-O ) :  -0.1048 B(  0-C ,  8-O ) :   0.1016 B(  1-C ,  5-H ) :  -0.1050 
B(  1-C ,  7-O ) :   1.7834 B(  1-C ,  8-O ) :   0.7780 B(  2-C ,  3-H ) :   0.8625 
B(  2-C ,  4-H ) :   0.8624 B(  2-C ,  5-H ) :   0.8584 B(  6-O ,  9-H ) :   0.1085 
B(  8-O ,  9-H ) :   0.9500 

-------
TIMINGS
-------

Total SCF time: 0 days 0 hours 0 min 47 sec 

Total time                  ....      47.518 sec
Sum of individual times     ....      44.765 sec  ( 94.2%)

SCF preparation             ....       0.613 sec  (  1.3%)
Fock matrix formation       ....      43.209 sec  ( 90.9%)
  Startup                   ....       0.046 sec  (  0.1% of F)
  Coulomb+Exchange Fock     ....      37.345 sec  ( 86.4% of F)
  XC integration            ....       7.774 sec  ( 18.0% of F)
    XC Preparation          ....       0.000 sec  (  0.0% of XC)
    Basis function eval.    ....       2.489 sec  ( 32.0% of XC)
    Density eval.           ....       1.148 sec  ( 14.8% of XC)
    XC-Functional eval.     ....       0.849 sec  ( 10.9% of XC)
    XC-Potential eval.      ....       2.166 sec  ( 27.9% of XC)
Diagonalization             ....       0.000 sec  (  0.0%)
Density matrix formation    ....       0.252 sec  (  0.5%)
Total Energy calculation    ....       0.046 sec  (  0.1%)
Population analysis         ....       0.022 sec  (  0.0%)
Orbital Transformation      ....       0.085 sec  (  0.2%)
Orbital Orthonormalization  ....       0.000 sec  (  0.0%)
DIIS solution               ....       0.294 sec  (  0.6%)
SOSCF solution              ....       0.245 sec  (  0.5%)
Finished LeanSCF after  47.6 sec

Maximum memory used throughout the entire LEANSCF-calculation: 11.9 MB


           ************************************************************
           *        Program running with 8 parallel MPI-processes     *
           *              working on a common directory               *
           ************************************************************

------------------------------------------------------------------------------
                         ORCA PROPERTY INTEGRAL CALCULATIONS
------------------------------------------------------------------------------

GBWName                                   ... s0_freq_0_wat.gbw
Number of atoms                           ...     10
Number of basis functions                 ...    210
Max core memory                           ...   8000 MB

Dipole integrals                          ... YES
Quadrupole integrals                      ...  NO
Linear momentum integrals                 ...  NO
Angular momentum integrals                ...  NO
Higher moments length integrals           ...  NO
Higher moments velocity integrals         ...  NO
Kinetic energy integrals                  ...  NO
GIAO right hand sides                     ...  NO
GIAO dipole derivative integrals          ...  NO
SOC integrals                             ...  NO
EPR diamagnetic integrals (GIAO)          ...  NO
EPR gauge integrals                       ...  NO
Field gradient integrals                  ...  NO (   0 nuclei)
Spin-dipole/Fermi contact integrals       ...  NO (   0 nuclei)
Contact density integrals                 ...  NO (   0 nuclei)
Nucleus-orbit integrals                   ...  NO (   0 nuclei)
Geometric perturbations                   ... YES (  10 nuclei)

Choice of electric origin   ... Center of mass
Position of electric origin ... (  0.1107, -0.0308,  0.0000) 
Choice of magnetic origin   ... GIAO
Position of magnetic origin ... (  0.0000,  0.0000,  0.0000) 

Calculating integrals                     ... Electric Dipole (Length)     done (  0.0 sec)
Calculating integrals                     ... Geometrical perturbation right hand sides

-----------------------
GEOMETRIC PERTURBATIONS (10 nuclei)
-----------------------

MaxCore                            ...   8000 MB
Number of batches                  ...      1

BATCH   0: Atoms    0 -    9 ( 30 perturbations)
   => H(core) and overlap derivative integrals     ... done (     0.1 sec)
   => Making and storing internal U-coefficients   ... done (     0.0 sec)
   => Exact two electron derivative integrals      ... done (    19.3 sec)
   => Exact two-electron response operators        ... done (    39.9 sec)
   => XC derivative integrals                      ... done (    31.3 sec)
   => XC response operators                        ... done (     7.9 sec)
   => Completing and storing right hand sides      ... done (     0.0 sec)
   => Total time for right hand sides =  80.0 sec

  geometrical perturbations done ( 80.0 sec)

Property integrals calculated in  80.0 sec

Maximum memory used throughout the entire PROPINT-calculation: 37.2 MB

-------------------------   --------------------
FINAL SINGLE POINT ENERGY      -342.325001762732
-------------------------   --------------------



           ************************************************************
           *        Program running with 8 parallel MPI-processes     *
           *              working on a common directory               *
           ************************************************************
------------------------------------------------------------------------------
                         ORCA SCF GRADIENT CALCULATION
------------------------------------------------------------------------------

Nuc. rep. gradient        (SHARK) ... done (  0.0 sec)
HCore & Overlap gradient  (SHARK) ... done (  0.0 sec)
Two-electron gradient     (SHARK) ... done ( 12.0 sec)
XC gradient                       ... done (  2.2 sec)

------------------
CARTESIAN GRADIENT
------------------

   1   C   :    0.084695614    0.083982555   -0.000019871
   2   C   :   -0.109453359   -0.033380409    0.000004504
   3   C   :   -0.001851063   -0.003610805    0.000001768
   4   H   :   -0.004082159    0.002263105    0.002676873
   5   H   :   -0.004084080    0.002262420   -0.002677042
   6   H   :    0.000265117    0.001846021    0.000001521
   7   O   :   -0.021825458   -0.087839304    0.000014780
   8   O   :    0.033675984    0.050751885   -0.000001646
   9   O   :    0.031119955   -0.021176190    0.000003251
  10   H   :   -0.008460550    0.004900721   -0.000004138

Difference to translation invariance:
           :    0.0000000000    0.0000000000    0.0000000000

Difference to rotation invariance:
           :    0.0000000640   -0.0000001291    0.0000192636

Norm of the Cartesian gradient     ...    0.2020221905
RMS gradient                       ...    0.0368840370
MAX gradient                       ...    0.1094533590

-------
TIMINGS
-------

Total SCF gradient time     ....       14.195 sec

Densities                   ....       0.001 sec  (  0.0%)
One electron gradient       ....       0.048 sec  (  0.3%)
Two electron gradient       ....      11.953 sec  ( 84.2%)
XC gradient                 ....       2.190 sec  ( 15.4%)

Maximum memory used throughout the entire SCFGRAD-calculation: 20.9 MB


           ************************************************************
           *        Program running with 8 parallel MPI-processes     *
           *              working on a common directory               *
           ************************************************************
------------------------------------------------------------------------------
                            ORCA SCF RESPONSE CALCULATION
------------------------------------------------------------------------------

GBWName                                 ... s0_freq_0_wat.gbw
Number of atoms                         ...     10
Number of basis functions               ...    210
Max core memory                         ...   8000 MB

Electric field perturbation             ...  NO
Quadrupolar field perturbation          ...  NO
Magnetic field perturbation (no GIAO)   ...  NO
Magnetic field perturbation (with GIAO) ...  NO
Linear momentum (velocity) perturbation ...  NO
Spin-orbit coupling perturbation        ...  NO
Choice of electric origin               ... Center of mass
Position of electric origin             ...     0.110678    -0.030761     0.000005
Choice of magnetic origin               ... GIAO
Position of magnetic origin             ...     0.000000     0.000000     0.000000
Nuclear geometric perturbations         ... YES (  30 perturbations)
Nucleus-orbit perturbations             ...  NO (   0 perturbations)
Spin-dipole/Fermi contact perturbations ...  NO (   0 perturbations)

Total number of real perturbations      ...     30
Total number of imaginary perturbations ...      0
Total number of triplet perturbations   ...      0
Total number of SOC perturbations       ...      0

Using XC Grid                  ... (s0_freq_0_wat.grid_cpscf.tmp) 
Recalculating density on grid  ... (s0_freq_0_wat.grho_cpscf0.tmp) done
Calculating the xc-kernel      ... (s0_freq_0_wat.fxc_cpscf0.tmp) done

                                **********************
                                * REAL PERTURBATIONS *
                                **********************



-------------------
SHARK CP-SCF DRIVER
-------------------

Dimension of the orbital basis          ...    174
Dimension of the CPSCF-problem          ...   3473
Number of operators                     ...      1
Max. number of iterations               ...    128
Convergence Tolerance                   ... 1.0e-04
Number of perturbations                 ...     30
Perturbation type                       ... REAL

----------------------------
POPLE LINEAR EQUATION SOLVER
----------------------------

  ITERATION   0:   ||err||_max =   3.4541e-01 (  40.6 sec   0/ 30 done)
  ITERATION   1:   ||err||_max =   7.0657e-02 (  41.0 sec   0/ 30 done)
  ITERATION   2:   ||err||_max =   2.3872e-02 (  41.5 sec   0/ 30 done)
  ITERATION   3:   ||err||_max =   8.7409e-03 (  41.1 sec   0/ 30 done)
  ITERATION   4:   ||err||_max =   3.1173e-03 (  41.4 sec   0/ 30 done)
  ITERATION   5:   ||err||_max =   1.1333e-03 (  41.8 sec   1/ 30 done)
  ITERATION   6:   ||err||_max =   5.2315e-04 (  40.1 sec   5/ 30 done)
  ITERATION   7:   ||err||_max =   1.5188e-04 (  33.3 sec  25/ 30 done)
  ITERATION   8:   ||err||_max =   7.8752e-05 (   8.7 sec  30/ 30 done)

CP-SCF equations solved in 329.7 sec
Response densities calculated in   0.0 sec

Maximum memory used throughout the entire SCFRESP-calculation: 39.7 MB


           ************************************************************
           *        Program running with 8 parallel MPI-processes     *
           *              working on a common directory               *
           ************************************************************

------------------------------------------------------------------------------
                              ORCA PROPERTY CALCULATIONS
------------------------------------------------------------------------------

GBWName                                 ... s0_freq_0_wat.gbw
Number of atoms                         ...     10
Number of basis functions               ...    210
Max core memory                         ...   8000 MB

Electric properties:
Dipole moment                           ... YES
Quadrupole moment                       ...  NO
Static polarizability (Dipole/Dipole)   ...  NO
Static polarizability (Dipole/Quad.)    ...  NO
Static polarizability (Quad./Quad.)     ...  NO
Static polarizability (Velocity)        ...  NO
Static hyperpolarizability              ...  NO

Atomic electric properties:
Dipole moment                           ...  NO
Quadrupole moment                       ...  NO
Static polarizability                   ...  NO

Choice of electric origin               ... Center of mass
Position of electric origin             ...     0.110678    -0.030761     0.000005

General magnetic properties:
Magnetizability                         ...  NO

EPR properties:
g-Tensor (aka g-matrix)                 ...  NO
Zero-Field splitting spin-orbit         ...  NO
Zero-field splitting spin-spin          ...  NO
Hyperfine couplings                     ...  NO (   0 nuclei)
Quadrupole couplings                    ...  NO (   0 nuclei)
Contact density                         ...  NO (   0 nuclei)

NMR properties:
Chemical shifts                         ...  NO (   0 nuclei)
Spin-rotation constants                 ...  NO (   0 nuclei)
Spin-spin couplings                     ...  NO (   0 nuclei,    0 pairs)

Choice of magnetic origin               ... GIAO
Position of magnetic origin             ...     0.000000     0.000000     0.000000

Properties with geometric perturbations:
SCF Hessian                             ... YES
IR spectrum                             ... YES
VCD spectrum                            ...  NO
X-ray spectroscopy properties:
SCF XES/XAS/RIXS spectra                ...  NO

SCF SOC stabilization energy            ...  NO
Diagonal Born-Oppenheimer correction    ...  NO

-------------
DIPOLE MOMENT
-------------

Method             : SCF
Type of density    : Electron Density
Multiplicity       :   1
Irrep              :   0
Energy             :  -342.3250017627317447 Eh
Basis              : AO
                                X                 Y                 Z
Electronic contribution:      3.945652823      -1.457284099       0.000026552
Nuclear contribution   :     -5.092995573       1.415109431      -0.000137035
                        -----------------------------------------
Total Dipole Moment    :     -1.147342750      -0.042174667      -0.000110483
                        -----------------------------------------
Magnitude (a.u.)       :      1.148117634
Magnitude (Debye)      :      2.918283105



--------------------
Rotational spectrum 
--------------------
 
Rotational constants in cm-1:             0.180280             0.119815             0.072965 
Rotational constants in MHz :          5404.669880          3591.960879          2187.443770 

Dipole components along the rotational axes: 
x,y,z [a.u.] :    -1.140580     0.131341    -0.000105 
x,y,z [Debye]:    -2.899125     0.333843    -0.000266 

 

Dipole moment calculation done in   0.0 sec 

-----------
SCF HESSIAN
-----------

Occupied/Occupied contributions to the Hessian:
   => Occupied/Occupied contributions              ... done (  0.0 sec)
Perturbed density contributions to the Hessian:
   => Perturbed density contributions              ... done (  0.0 sec)
Explicit contributions to the Hessian:
   => Nuclear repulsion Hessian                    ... done (  0.0 sec)
   => HCore and overlap Hessian                    ... done (  0.8 sec)
   => Exact two electron integral Hessian          ... done (106.0 sec)
   => XC-Hessian                                   ... done ( 14.3 sec)
   => Explicit contributions done
Dipole derivatives                                 ... done (  0.0 sec)
Mass weighting the Hessian           ... done
Calculating normal modes             ... done
Scaling frequencies                  ... done

-----------------------
VIBRATIONAL FREQUENCIES
-----------------------

Scaling factor for frequencies =  1.000000000  (already applied!)

     0:       0.00 cm**-1
     1:       0.00 cm**-1
     2:       0.00 cm**-1
     3:       0.00 cm**-1
     4:       0.00 cm**-1
     5:       0.00 cm**-1
     6:     127.32 cm**-1
     7:     175.64 cm**-1
     8:     313.31 cm**-1
     9:     456.11 cm**-1
    10:     533.73 cm**-1
    11:     556.61 cm**-1
    12:     623.46 cm**-1
    13:     755.69 cm**-1
    14:     791.40 cm**-1
    15:     801.55 cm**-1
    16:    1001.60 cm**-1
    17:    1037.07 cm**-1
    18:    1112.00 cm**-1
    19:    1339.30 cm**-1
    20:    1387.14 cm**-1
    21:    1419.62 cm**-1
    22:    1450.12 cm**-1
    23:    1461.23 cm**-1
    24:    1493.24 cm**-1
    25:    1721.15 cm**-1
    26:    3024.53 cm**-1
    27:    3091.16 cm**-1
    28:    3153.56 cm**-1
    29:    3578.66 cm**-1


------------
NORMAL MODES
------------

These modes are the Cartesian displacements weighted by the diagonal matrix
M(i,i)=1/sqrt(m[i]) where m[i] is the mass of the displaced atom
Thus, these vectors are normalized but *not* orthogonal

                  0          1          2          3          4          5    
      0       0.000000   0.000000   0.000000   0.000000   0.000000   0.000000
      1       0.000000   0.000000   0.000000   0.000000   0.000000   0.000000
      2       0.000000   0.000000   0.000000   0.000000   0.000000   0.000000
      3       0.000000   0.000000   0.000000   0.000000   0.000000   0.000000
      4       0.000000   0.000000   0.000000   0.000000   0.000000   0.000000
      5       0.000000   0.000000   0.000000   0.000000   0.000000   0.000000
      6       0.000000   0.000000   0.000000   0.000000   0.000000   0.000000
      7       0.000000   0.000000   0.000000   0.000000   0.000000   0.000000
      8       0.000000   0.000000   0.000000   0.000000   0.000000   0.000000
      9       0.000000   0.000000   0.000000   0.000000   0.000000   0.000000
     10       0.000000   0.000000   0.000000   0.000000   0.000000   0.000000
     11       0.000000   0.000000   0.000000   0.000000   0.000000   0.000000
     12       0.000000   0.000000   0.000000   0.000000   0.000000   0.000000
     13       0.000000   0.000000   0.000000   0.000000   0.000000   0.000000
     14       0.000000   0.000000   0.000000   0.000000   0.000000   0.000000
     15       0.000000   0.000000   0.000000   0.000000   0.000000   0.000000
     16       0.000000   0.000000   0.000000   0.000000   0.000000   0.000000
     17       0.000000   0.000000   0.000000   0.000000   0.000000   0.000000
     18       0.000000   0.000000   0.000000   0.000000   0.000000   0.000000
     19       0.000000   0.000000   0.000000   0.000000   0.000000   0.000000
     20       0.000000   0.000000   0.000000   0.000000   0.000000   0.000000
     21       0.000000   0.000000   0.000000   0.000000   0.000000   0.000000
     22       0.000000   0.000000   0.000000   0.000000   0.000000   0.000000
     23       0.000000   0.000000   0.000000   0.000000   0.000000   0.000000
     24       0.000000   0.000000   0.000000   0.000000   0.000000   0.000000
     25       0.000000   0.000000   0.000000   0.000000   0.000000   0.000000
     26       0.000000   0.000000   0.000000   0.000000   0.000000   0.000000
     27       0.000000   0.000000   0.000000   0.000000   0.000000   0.000000
     28       0.000000   0.000000   0.000000   0.000000   0.000000   0.000000
     29       0.000000   0.000000   0.000000   0.000000   0.000000   0.000000
                  6          7          8          9         10         11    
      0      -0.000000  -0.000004   0.005806  -0.039617  -0.000034   0.081974
      1       0.000002  -0.000005   0.119665   0.010539  -0.000079   0.258132
      2       0.018296   0.095768  -0.000005   0.000002   0.399954   0.000318
      3       0.000002  -0.000001   0.049507   0.061258  -0.000026   0.075936
      4      -0.000000  -0.000004   0.066191  -0.063895   0.000095  -0.224137
      5      -0.012979   0.035675   0.000001   0.000003   0.257784   0.000209
      6      -0.000007   0.000002  -0.248285  -0.156610   0.000049  -0.151350
      7      -0.000002  -0.000003  -0.171714  -0.052073  -0.000036   0.127496
      8       0.005298  -0.273108  -0.000005   0.000014  -0.026384  -0.000016
      9      -0.350019  -0.137337  -0.194363  -0.123454  -0.357851  -0.096798
     10      -0.371666   0.210094  -0.384149  -0.199755   0.345137  -0.099241
     11      -0.319358  -0.334235   0.000476  -0.002536  -0.223839  -0.001990
     12       0.349972   0.137330  -0.194390  -0.123465   0.357879  -0.096176
     13       0.371633  -0.210075  -0.384222  -0.199774  -0.345027  -0.099863
     14      -0.319409  -0.334238  -0.000449   0.002578  -0.223859   0.001621
     15       0.000008   0.000018  -0.595668  -0.394014   0.000177  -0.488217
     16       0.000009  -0.000014  -0.046253   0.031212  -0.000088   0.241596
     17       0.522114  -0.455645  -0.000038   0.000009  -0.290294  -0.000250
     18       0.000002  -0.000011   0.083712  -0.328516  -0.000095   0.260044
     19       0.000003   0.000012   0.104655   0.071525  -0.000144   0.295887
     20       0.031497   0.269002  -0.000000  -0.000011  -0.197791  -0.000172
     21       0.000004  -0.000009   0.250718   0.065099   0.000161  -0.407672
     22      -0.000000  -0.000003   0.005719  -0.078005   0.000057  -0.124892
     23      -0.023087   0.261789   0.000012  -0.000013  -0.163709  -0.000131
     24       0.000000   0.000019  -0.111966   0.364141  -0.000068   0.181338
     25      -0.000001  -0.000001  -0.071009   0.113192   0.000096  -0.281944
     26      -0.009166  -0.333094  -0.000006   0.000017  -0.056012  -0.000033
     27      -0.000002   0.000035  -0.247136   0.650509  -0.000044   0.067986
     28      -0.000000  -0.000005   0.021298  -0.069147   0.000090  -0.205781
     29       0.002169  -0.325713   0.000040  -0.000169  -0.158254  -0.000124
                 12         13         14         15         16         17    
      0      -0.168664  -0.000001   0.000003   0.005283  -0.085020   0.000015
      1      -0.040028   0.000006   0.000018   0.114635   0.010456  -0.000013
      2      -0.000008   0.172370  -0.017236   0.000039  -0.000015  -0.204956
      3      -0.110899   0.000015  -0.000042  -0.200889  -0.054420   0.000005
      4      -0.056908  -0.000000  -0.000018  -0.172752   0.034502  -0.000001
      5      -0.000011  -0.418951   0.016210  -0.000005   0.000010   0.099649
      6      -0.237507   0.000006   0.000047   0.230483  -0.021166   0.000000
      7       0.216708  -0.000001  -0.000031  -0.139424  -0.182309   0.000025
      8      -0.000009   0.088503  -0.002737   0.000017   0.000025   0.163619
      9      -0.282610  -0.414413   0.029344   0.273361  -0.029398  -0.508244
     10       0.485891   0.371112  -0.024729  -0.379470   0.364810   0.326941
     11       0.017919  -0.156302   0.014215  -0.017107   0.082603  -0.164310
     12      -0.282637   0.414396  -0.029233   0.273551  -0.029300   0.508228
     13       0.485899  -0.371108   0.024589  -0.379612   0.364753  -0.326984
     14      -0.017929  -0.156327   0.014223   0.017035  -0.082649  -0.164344
     15       0.118012  -0.000004   0.000009   0.001599   0.684136  -0.000077
     16       0.100417  -0.000009  -0.000018  -0.069288  -0.422136   0.000036
     17      -0.000022  -0.283449   0.018157  -0.000040  -0.000056  -0.367829
     18       0.213205  -0.000005   0.000021   0.063701   0.015456  -0.000004
     19      -0.115084  -0.000009   0.000043   0.221093   0.121991  -0.000015
     20       0.000007  -0.041443   0.023680  -0.000047  -0.000008   0.032359
     21       0.122605  -0.000001   0.000003   0.013352   0.010236   0.000001
     22      -0.151925   0.000007  -0.000050  -0.359419   0.017509   0.000002
     23       0.000006   0.104740  -0.019009   0.000018  -0.000001  -0.014735
     24       0.062726  -0.000008  -0.000044  -0.155623   0.051686  -0.000005
     25       0.111713  -0.000001   0.000038   0.336888  -0.052612   0.000004
     26       0.000014   0.100889   0.057953  -0.000074  -0.000002  -0.017476
     27       0.282897   0.000016   0.000116   0.282972   0.060138  -0.000014
     28      -0.034485  -0.000002   0.000022   0.030625  -0.049884   0.000008
     29      -0.000073  -0.126296  -0.995734   0.001125   0.000039  -0.000711
                 18         19         20         21         22         23    
      0       0.217245  -0.189108   0.061389   0.070020   0.071355  -0.000013
      1      -0.018861   0.128934  -0.012565   0.079280  -0.287986   0.000020
      2       0.000003  -0.000012   0.000004  -0.000001   0.000011  -0.025069
      3       0.313112   0.114171  -0.027274  -0.083282  -0.042021   0.000004
      4      -0.145787  -0.060615  -0.008277   0.119103   0.109030  -0.000013
      5       0.000008   0.000003  -0.000001  -0.000007  -0.000003   0.004650
      6      -0.165841  -0.012064  -0.116970  -0.008154  -0.071079   0.000004
      7      -0.052545   0.026469   0.049995  -0.057100   0.107294  -0.000015
      8       0.000000   0.000000   0.000004   0.000003  -0.000013  -0.052841
      9      -0.164780   0.186683   0.470093   0.274681  -0.044992  -0.007947
     10       0.474088  -0.334271  -0.149205   0.307048  -0.316532   0.475357
     11       0.093214   0.070736   0.369736   0.259409  -0.052677   0.046165
     12      -0.164834   0.186679   0.470048   0.274649  -0.044980   0.008021
     13       0.474113  -0.334275  -0.149203   0.307097  -0.316784  -0.475243
     14      -0.093213  -0.070740  -0.369777  -0.259456   0.052717   0.046123
     15       0.251597   0.429341   0.238606  -0.367212   0.322008  -0.000039
     16      -0.183694  -0.138740  -0.068622   0.083229  -0.036981   0.000028
     17      -0.000001  -0.000018  -0.000016  -0.000021   0.000171   0.735070
     18      -0.062090   0.007088  -0.004315  -0.018404   0.007355   0.000000
     19       0.002681  -0.066233  -0.002261  -0.061715   0.147162  -0.000011
     20       0.000001   0.000007  -0.000001   0.000006  -0.000011   0.004733
     21      -0.064821  -0.006913   0.005672  -0.014568  -0.006677   0.000002
     22      -0.052784  -0.005394   0.025274  -0.096735  -0.076690   0.000009
     23      -0.000003  -0.000001  -0.000000   0.000001   0.000001  -0.001218
     24      -0.123552   0.047290  -0.033357   0.066525   0.052878  -0.000003
     25       0.150674   0.027253  -0.006925  -0.013292  -0.002213   0.000001
     26       0.000001   0.000005  -0.000002   0.000004   0.000003  -0.000648
     27      -0.290087  -0.519407   0.316436  -0.459494  -0.584661   0.000037
     28       0.227235   0.382119  -0.235702   0.345047   0.440778  -0.000028
     29      -0.000103  -0.000063   0.000029  -0.000034  -0.000039   0.000072
                 24         25         26         27         28         29    
      0      -0.183791   0.190148  -0.001061  -0.000000  -0.001211   0.000467
      1      -0.175425   0.040827   0.000977   0.000000  -0.000416   0.002222
      2       0.000011   0.000005  -0.000000   0.001021   0.000000  -0.000000
      3       0.087853  -0.329253  -0.000165   0.000000   0.000190   0.001210
      4      -0.110504  -0.426028  -0.000386   0.000000  -0.000728  -0.006791
      5       0.000004  -0.000008   0.000000   0.000526  -0.000000  -0.000000
      6       0.045097  -0.028540   0.052043   0.000001  -0.048174   0.000051
      7      -0.035327   0.003941  -0.014942   0.000002  -0.077873  -0.000394
      8       0.000006  -0.000000   0.000003   0.091091   0.000002   0.000000
      9       0.317667  -0.073918  -0.367862   0.415990   0.141845  -0.001419
     10       0.244442   0.034664  -0.096042   0.107876   0.028161  -0.000464
     11       0.240081  -0.026057   0.530808  -0.557732  -0.213141   0.000786
     12       0.317649  -0.073924  -0.367963  -0.415997   0.141878  -0.001419
     13       0.244533   0.034681  -0.096079  -0.107890   0.028176  -0.000464
     14      -0.240135   0.026060  -0.530830  -0.557615   0.213140  -0.000785
     15      -0.630261   0.059531   0.131288  -0.000003   0.306526   0.000929
     16       0.204935  -0.028003   0.356533  -0.000009   0.874613  -0.003654
     17      -0.000059  -0.000015  -0.000011   0.017964  -0.000028   0.000000
     18       0.035941  -0.015129  -0.000029   0.000000   0.000046   0.000441
     19       0.100230   0.001653   0.000433  -0.000000   0.000244  -0.001475
     20      -0.000009   0.000001   0.000000  -0.000275  -0.000000  -0.000000
     21       0.016319   0.104216  -0.000159   0.000000  -0.000307  -0.000183
     22       0.071139   0.234595   0.000050  -0.000000   0.000297   0.002278
     23       0.000000   0.000001   0.000000  -0.000016   0.000000  -0.000000
     24      -0.007422   0.081763   0.000137  -0.000000  -0.000047  -0.035708
     25       0.020862   0.020088  -0.000010  -0.000000  -0.000080  -0.049512
     26       0.000000   0.000004  -0.000000  -0.000129  -0.000000  -0.000004
     27      -0.110913  -0.625821  -0.000167   0.000000   0.000817   0.543985
     28       0.082988   0.433073  -0.000917   0.000001   0.003292   0.836823
     29      -0.000010  -0.000050  -0.000000   0.000218   0.000000   0.000072


-----------
IR SPECTRUM
-----------

 Mode   freq       eps      Int      T**2         TX        TY        TZ
       cm**-1   L/(mol*cm) km/mol    a.u.
----------------------------------------------------------------------------
  6:    127.32   0.000083    0.42  0.000203  ( 0.000002  0.000021 -0.014232)
  7:    175.64   0.001129    5.71  0.002006  (-0.000004 -0.000008 -0.044791)
  8:    313.31   0.003511   17.74  0.003497  (-0.059078 -0.002639  0.000002)
  9:    456.11   0.002780   14.05  0.001902  ( 0.040480 -0.016236 -0.000007)
 10:    533.73   0.002683   13.56  0.001569  (-0.000011 -0.000002  0.039609)
 11:    556.61   0.000111    0.56  0.000062  ( 0.002275  0.007549  0.000021)
 12:    623.46   0.002877   14.54  0.001440  (-0.037950  0.000150 -0.000005)
 13:    755.69   0.002947   14.89  0.001217  ( 0.000006 -0.000001 -0.034884)
 14:    791.40   0.015829   79.99  0.006242  ( 0.000012 -0.000013 -0.079004)
 15:    801.55   0.002852   14.41  0.001110  ( 0.006254 -0.032728  0.000034)
 16:   1001.60   0.000792    4.00  0.000247  (-0.015246  0.003778  0.000001)
 17:   1037.07   0.000578    2.92  0.000174  ( 0.000003 -0.000012 -0.013186)
 18:   1112.00   0.025721  129.98  0.007218  ( 0.071669 -0.045626 -0.000002)
 19:   1339.30   0.012442   62.88  0.002899  (-0.045982  0.028014 -0.000004)
 20:   1387.14   0.027807  140.53  0.006256  ( 0.070108 -0.036614 -0.000001)
 21:   1419.62   0.058499  295.63  0.012859  (-0.041670  0.105465 -0.000003)
 22:   1450.12   0.002474   12.50  0.000532  (-0.022936 -0.002497  0.000005)
 23:   1461.23   0.001759    8.89  0.000376  ( 0.000006  0.000010  0.019381)
 24:   1493.24   0.012724   64.30  0.002659  (-0.006811 -0.051115 -0.000001)
 25:   1721.15   0.015369   77.67  0.002787  (-0.027292 -0.045185 -0.000000)
 26:   3024.53   0.000086    0.44  0.000009  (-0.001417  0.002629  0.000000)
 27:   3091.16   0.000088    0.44  0.000009  ( 0.000001 -0.000001  0.002975)
 28:   3153.56   0.000666    3.36  0.000066  ( 0.005257 -0.006184  0.000000)
 29:   3578.66   0.028618  144.62  0.002496  ( 0.036855  0.033723  0.000002)

* The epsilon (eps) is given for a Dirac delta lineshape.
** The dipole moment derivative (T) already includes vibrational overlap.

The first frequency considered to be a vibration is 6
The total number of vibrations considered is 24


--------------------------
THERMOCHEMISTRY AT 298.15K
--------------------------

Temperature         ...   298.15 K
Pressure            ...     1.00 atm
Total Mass          ...    88.06 AMU
Quasi RRHO          ...     True
Cut-Off Frequency   ...     1.00 cm^-1

Throughout the following assumptions are being made:
  (1) The electronic state is orbitally nondegenerate
  (2) There are no thermally accessible electronically excited states
  (3) Hindered rotations indicated by low frequency modes are not
      treated as such but are treated as vibrations and this may
      cause some error
  (4) All equations used are the standard statistical mechanics
      equations for an ideal gas
  (5) All vibrations are strictly harmonic

freq.     127.32  E(vib)   ...       0.43 
freq.     175.64  E(vib)   ...       0.38 
freq.     313.31  E(vib)   ...       0.25 
freq.     456.11  E(vib)   ...       0.16 
freq.     533.73  E(vib)   ...       0.13 
freq.     556.61  E(vib)   ...       0.12 
freq.     623.46  E(vib)   ...       0.09 
freq.     755.69  E(vib)   ...       0.06 
freq.     791.40  E(vib)   ...       0.05 
freq.     801.55  E(vib)   ...       0.05 
freq.    1001.60  E(vib)   ...       0.02 
freq.    1037.07  E(vib)   ...       0.02 
freq.    1112.00  E(vib)   ...       0.01 
freq.    1339.30  E(vib)   ...       0.01 
freq.    1387.14  E(vib)   ...       0.00 
freq.    1419.62  E(vib)   ...       0.00 
freq.    1450.12  E(vib)   ...       0.00 
freq.    1461.23  E(vib)   ...       0.00 
freq.    1493.24  E(vib)   ...       0.00 
freq.    1721.15  E(vib)   ...       0.00 
freq.    3024.53  E(vib)   ...       0.00 
freq.    3091.16  E(vib)   ...       0.00 
freq.    3153.56  E(vib)   ...       0.00 
freq.    3578.66  E(vib)   ...       0.00 

------------
INNER ENERGY
------------

The inner energy is: U= E(el) + E(ZPE) + E(vib) + E(rot) + E(trans)
    E(el)   - is the total energy from the electronic structure calculation
              = E(kin-el) + E(nuc-el) + E(el-el) + E(nuc-nuc)
    E(ZPE)  - the the zero temperature vibrational energy from the frequency calculation
    E(vib)  - the the finite temperature correction to E(ZPE) due to population
              of excited vibrational states
    E(rot)  - is the rotational thermal energy
    E(trans)- is the translational thermal energy

Summary of contributions to the inner energy U:
Electronic energy                ...   -342.32500176 Eh
Zero point energy                ...      0.07154626 Eh      44.90 kcal/mol
Thermal vibrational correction   ...      0.00286590 Eh       1.80 kcal/mol
Thermal rotational correction    ...      0.00141627 Eh       0.89 kcal/mol
Thermal translational correction ...      0.00141627 Eh       0.89 kcal/mol
-----------------------------------------------------------------------
Total thermal energy                   -342.24775706 Eh


Summary of corrections to the electronic energy:
(perhaps to be used in another calculation)
Total thermal correction                  0.00569844 Eh       3.58 kcal/mol
Non-thermal (ZPE) correction              0.07154626 Eh      44.90 kcal/mol
-----------------------------------------------------------------------
Total correction                          0.07724470 Eh      48.47 kcal/mol


--------
ENTHALPY
--------

The enthalpy is H = U + kB*T
                kB is Boltzmann's constant
Total thermal energy              ...   -342.24775706 Eh 
Thermal Enthalpy correction       ...      0.00094421 Eh       0.59 kcal/mol
-----------------------------------------------------------------------
Total Enthalpy                    ...   -342.24681285 Eh


Note: Only C1 symmetry has been detected, increase convergence thresholds 
      if your molecule has a higher symmetry. Symmetry factor of 1.0 is   
      used for the rotational entropy correction. 
 

Note: Rotational entropy computed according to Herzberg 
Infrared and Raman Spectra, Chapter V,1, Van Nostrand Reinhold, 1945 
Point Group:  C1, Symmetry Number:   1  
Rotational constants in cm-1:     0.180281     0.119815     0.072965 

Vibrational entropy computed according to the QRRHO of S. Grimme
Chem.Eur.J. 2012 18 9955 using a reference frequency of 100.0 cm-1


-------
ENTROPY
-------

The entropy contributions are T*S = T*(S(el)+S(vib)+S(rot)+S(trans))
     S(el)   - electronic entropy
     S(vib)  - vibrational entropy
     S(rot)  - rotational entropy
     S(trans)- translational entropy
The entropies will be listed as multiplied by the temperature to get
units of energy

Electronic entropy                ...      0.00000000 Eh      0.00 kcal/mol
Vibrational entropy               ...      0.00470612 Eh      2.95 kcal/mol
Rotational entropy                ...      0.01255712 Eh      7.88 kcal/mol
Translational entropy             ...      0.01869119 Eh     11.73 kcal/mol
-----------------------------------------------------------------------
Final entropy term                ...      0.03595443 Eh     22.56 kcal/mol

In case the symmetry of your molecule has not been determined correctly
or in case you have a reason to use a different symmetry number we print 
out the resulting rotational entropy values for sn=1,12:

 non-linear molecules -----------------------------------
|  sn= 1 | S(rot)=       0.01255712 Eh      7.88 kcal/mol|
|  sn= 2 | S(rot)=       0.01190267 Eh      7.47 kcal/mol|
|  sn= 3 | S(rot)=       0.01151984 Eh      7.23 kcal/mol|
|  sn= 4 | S(rot)=       0.01124821 Eh      7.06 kcal/mol|
|  sn= 5 | S(rot)=       0.01103752 Eh      6.93 kcal/mol|
|  sn= 6 | S(rot)=       0.01086538 Eh      6.82 kcal/mol|
|  sn= 7 | S(rot)=       0.01071983 Eh      6.73 kcal/mol|
|  sn= 8 | S(rot)=       0.01059376 Eh      6.65 kcal/mol|
|  sn= 9 | S(rot)=       0.01048255 Eh      6.58 kcal/mol|
|  sn=10 | S(rot)=       0.01038307 Eh      6.52 kcal/mol|
|  sn=11 | S(rot)=       0.01029308 Eh      6.46 kcal/mol|
|  sn=12 | S(rot)=       0.01021092 Eh      6.41 kcal/mol|
 linear molecules ---------------------------------------
|  Dinfh | S(rot)=       0.00779746 Eh      4.89 kcal/mol|
|  Cinfv | S(rot)=       0.00845191 Eh      5.30 kcal/mol|
 --------------------------------------------------------


-------------------
GIBBS FREE ENERGY
-------------------

The Gibbs free energy is G = H - T*S

Total enthalpy                    ...   -342.24681285 Eh 
Total entropy correction          ...     -0.03595443 Eh    -22.56 kcal/mol
-----------------------------------------------------------------------
Final Gibbs free energy         ...   -342.28276729 Eh

For completeness - the Gibbs free energy minus the electronic energy
G-E(el)                           ...      0.04223448 Eh     26.50 kcal/mol


Maximum memory used throughout the entire PROP-calculation: 30.7 MB

--------------------------------
SUGGESTED CITATIONS FOR THIS RUN
--------------------------------

Below you find a list of papers that are relevant to this ORCA run
We neither can nor want to force you to cite these papers, but we appreciate if you do
You receive ORCA, which is the product of decades of hard work by many enthusiastic individuals, for free
The only thing we kindly ask in return is that you cite our papers,
We deeply appreciate it, if you show your appreciation for ORCA by not just citing the generic ORCA reference.

Please note that relegating all ORCA citations to the supporting information does *not* help us.
SI sections are not indexed - citations you put there will not count into any citation statistics
But we need these citations in order to attract the funding resources that allow us to do what we are doing

Therefore, if you are a happy ORCA user, please consider citing a few of the papers listed below in the main body of your paper

In addition to the list printed below, the program has created the file s0_freq_0_wat.bibtex that contains the list in bibtex format
You can import this file easily into all common literature databanks and citation aid programs


List of essential papers. We consider these as the minimum necessary citations

  1. Neese, F.
     Software update: the ORCA program system, version 6.0
     WIRES Comput. Molec. Sci. 2025 15(1), e70019
     doi.org/10.1002/wcms.7019

List of papers to cite with high priority. The work reported in these papers was absolutely
necessary for this run to complete.
Our perspective: the developers of density functionals and basis sets usually get cited in chemistry papers
Good! But without the algorithms to do something with them, the functionals or basis sets would not do anything.
Hence, in our opinion, the algorithm design and method developments papers are equally worthy of getting cited

  1. Bykov, D.; Petrenko, T.; Izsak, R.; Kossmann, S.; Becker, U.; Valeev, E.; Neese, F.
     Efficient implementation of the analytic second derivatives of Hartree-Fock and hybrid DFT energies: a detailed analysis of different approximations
     Molec. Phys. 2015 113 , 1961-1977
     doi.org/10.1080/00268976.2015.1025114
  2. Lehtola, S.; Steigemann, C.; Oliveira, M.; Marques, M.
     Recent developments in Libxc - A comprehensive library of functionals for density functional theory
     Software X 2018 7 , 
     doi.org/10.1016/j.softx.2017.11.002
  3. Neese, F.
     The SHARK Integral Generation and Digestion System
     J. Comp. Chem. 2022 44(3), 381
     doi.org/10.1002/jcc.26942

List of suggested additional citations. These are papers that are important in the 'surrounding' of 
of this run, or papers that preceded the highly important papers. If you like your results we are grateful for a citation.

  1. Neese, F.
     The ORCA program system
     WIRES Comput. Molec. Sci. 2012 2(1), 73-78
     doi.org/10.1002/wcms.81
  2. Neese, F.
     Software update: the ORCA program system, version 4.0
     WIRES Comput. Molec. Sci. 2018 8(1), 1-6
     doi.org/10.1002/wcms.1327
  3. Neese, F.; Wennmohs, F.; Becker, U.; Riplinger, C.
     The ORCA quantum chemistry program package
     J. Chem. Phys. 2020 152(22), 224108
     doi.org/10.1063/5.0004608
  4. Neese, F.
     Software update: The ORCA program system—Version 5.0
     WIRES Comput. Molec. Sci. 2022 12(1), e1606
     doi.org/10.1002/wcms.1606

List of optional additional citations

  1. Neese, F.
     Approximate second-order SCF convergence for spin unrestricted wavefunctions
     Chem. Phys. Lett. 2000 325(1-3), 93-98
     doi.org/10.1016/s0009-2614(00)00662-x

Timings for individual modules:

Sum of individual times          ...      610.237 sec (=  10.171 min)
Startup calculation              ...       10.760 sec (=   0.179 min)   1.8 %
SCF iterations                   ...       49.409 sec (=   0.823 min)   8.1 %
Property integrals               ...       81.045 sec (=   1.351 min)  13.3 %
SCF Response                     ...      331.153 sec (=   5.519 min)  54.3 %
Property calculations            ...      122.381 sec (=   2.040 min)  20.1 %
SCF Gradient evaluation          ...       15.489 sec (=   0.258 min)   2.5 %
                             ****ORCA TERMINATED NORMALLY****
TOTAL RUN TIME: 0 days 0 hours 10 minutes 11 seconds 800 msec
