
                                 *****************
                                 * O   R   C   A *
                                 *****************

                                            #,                                       
                                            ###                                      
                                            ####                                     
                                            #####                                    
                                            ######                                   
                                           ########,                                 
                                     ,,################,,,,,                         
                               ,,#################################,,                 
                          ,,##########################################,,             
                       ,#########################################, ''#####,          
                    ,#############################################,,   '####,        
                  ,##################################################,,,,####,       
                ,###########''''           ''''###############################       
              ,#####''   ,,,,##########,,,,          '''####'''          '####       
            ,##' ,,,,###########################,,,                        '##       
           ' ,,###''''                  '''############,,,                           
         ,,##''                                '''############,,,,        ,,,,,,###''
      ,#''                                            '''#######################'''  
     '                                                          ''''####''''         
             ,#######,   #######,   ,#######,      ##                                
            ,#'     '#,  ##    ##  ,#'     '#,    #''#        ,####,    ,#,          
            ##       ##  ##   ,#'  ##            #'  '#       #'       ,# #          
            ##       ##  #######   ##           ,######,      #####,      #          
            '#,     ,#'  ##    ##  '#,     ,#' ,#      #,     #,   #      #          
             '#######'   ##     ##  '#######'  #'      '#     '####' #    #          



                #########################################################
                #                        -***-                          #
                #          Department of theory and spectroscopy        #
                #                                                       #
                #                      Frank Neese                      #
                #                                                       #
                #     Directorship, Architecture, Infrastructure        #
                #                    SHARK, DRIVERS                     #
                #        Core code/Algorithms in most modules           #
                #                                                       #
                #        Max Planck Institute fuer Kohlenforschung      #
                #                Kaiser Wilhelm Platz 1                 #
                #                 D-45470 Muelheim/Ruhr                 #
                #                      Germany                          #
                #                                                       #
                #                  All rights reserved                  #
                #                        -***-                          #
                #########################################################


                         Program Version 6.1.0  -  RELEASE   -
                                (GIT: $679e74b$)
                          ($2025-06-10 18:02:51 +0200$)


 With contributions from (in alphabetic order):
[Max-Planck-Institut fuer Kohlenforschung]                               
  Daniel Aravena         : Magnetic Suceptibility                        
  Michael Atanasov       : Ab Initio Ligand Field Theory (pilot matlab implementation)
  Alexander A. Auer      : GIAO ZORA, VPT2 properties, NMR spectrum      
  Ute Becker             : All parallelization in ORCA, NUMFREQ, NUMCALC 
  Giovanni Bistoni       : ED, misc. LED, open-shell LED, HFLD           
  Dmytro Bykov           : pre 5.0 version of the SCF Hessian            
  Marcos Casanova-Páez   : Triplet and SCS-CIS(D). UHF-(DLPNO)-IP/EA/STEOM-CCSD. UHF-CVS-IP/STEOM-CCSD   
  Vijay G. Chilkuri      : MRCI spin determinant printing, contributions to CSF-ICE 
  Pauline Colinet        : FMM embedding                                 
  Dipayan Datta          : RHF DLPNO-CCSD density                        
  Achintya Kumar Dutta   : EOM-CC, STEOM-CC                              
  Nicolas Foglia         : Exact transition moments, OPA infrastructure, MCD improvements    
  Dmitry Ganyushin       : Spin-Orbit,Spin-Spin,Magnetic field MRCI      
  Miquel Garcia-Rates    : C-PCM and meta-GGA Hessian, CCSD/C-PCM, Gaussian charge scheme 
  Tiago L. C. Gouveia    : GS-ROHF, GS-ROCIS                             
  Yang Guo               : DLPNO-NEVPT2, F12-NEVPT2, CIM, IAO-localization        
  Andreas Hansen         : Spin unrestricted coupled pair/coupled cluster methods 
  Ingolf Harden          : AUTO-CI MPn and infrastructure                
  Benjamin Helmich-Paris : MC-RPA, TRAH-(SCF,CASSCF), AVAS, COSX integrals, SCF dyn. polar., MC-PDFT, srDFT 
  Lee Huntington         : MR-EOM, pCC                                   
  Robert Izsak           : Overlap fitted RIJCOSX, COSX-SCS-MP3, EOM     
  Riya Kayal             : Wick's Theorem for AUTO-CI, AUTO-CI UHF-CCSDT 
  Emily Kempfer          : AUTO-CI RHF CISDT and CCSDT, approximate NEVPT4
  Christian Kollmar      : KDIIS, OOCD, Brueckner-CCSD(T), CCSD density, CASPT2, CASPT2-K, improved NEVPT2 
  Axel Koslowski         : Symmetry handling                             
  Simone Kossmann        : meta-GGA functionals, TD-DFT gradient, OOMP2, (MP2 Hessian; deprecated post 5.0) 
  Lucas Lang             : DCDCAS, Hyperfine gauge corrections, ICE-SOC+SSC
  Marvin Lechner         : AUTO-CI (C++ implementation), FIC-MRCC        
  Spencer Leger          : CASSCF response                               
  Dagmar Lenk            : GEPOL surface, SMD, ORCA-2-JSON               
  Dimitrios Liakos       : Extrapolation schemes; Compound Job, Property file
  Dimitrios Manganas     : Further ROCIS development; embedding schemes. LFT, Crystal Embedding 
  Dimitrios Pantazis     : SARC Basis sets                               
  Anastasios Papadopoulos: AUTO-CI, single reference methods and gradients 
  Taras Petrenko         : pre 6.0 DFT Hessian and TD-DFT gradient,  ECA, NRVS 
  Petra Pikulova         : Analytic Raman intensities                    
  Peter Pinski           : DLPNO-MP2, DLPNO-MP2 Gradient                 
  Shashank Vittal Rao    : ES-AILFT, MagRelax                            
  Christoph Reimann      : Effective Core Potentials                     
  Marius Retegan         : Local ZFS, SOC                                
  Christoph Riplinger    : Optimizer, TS searches, QM/MM, DLPNO-CCSD(T), (RO)-DLPNO pert. Triples 
  Michael Roemelt        : Original ROCIS implementation, recursive CI coupling coefficients
  Masaaki Saitow         : Open-shell DLPNO-CCSD energy and density      
  Barbara Sandhoefer     : DKH picture change effects                    
  Yorick L. A. Schmerwitz: GMF and freeze-and-release deltaSCF, NEB S-IDPP initial path                    
  Kantharuban Sivalingam : CASSCF convergence/infrastructure, NEVPT2, NEVPT3, NEVPT4(SD), FIC-MRCI and CEPA variants
  Bernardo de Souza      : ESD, SOC TD-DFT                               
  Georgi L. Stoychev     : AutoAux, RI-MP2 NMR, DLPNO-MP2 response, X2C  
  Van Anh Tran           : RI-MP2 g-tensors                              
  Willem Van den Heuvel  : Paramagnetic NMR                              
  Zikuan Wang            : NOTCH, Electric field optimization            
  Frank Wennmohs         : Technical directorship and infrastructure     
  Hang Xu                : AUTO-CI-Response properties                   
                                                                         
[FACCTs GmbH]                                                            
  Markus Bursch, Nicolas Foglia, Miquel Garcia-Rates, Ingolf Harden, Hagen Neugebauer, Anastasios Papadopoulos, 
  Christoph Riplinger, Bernardo de Souza, Georgi L. Stoychev                                                    
                                                                 
  APM, various basis sets, CI-OPT, improved COSX, DLPNO-Multilevel,           
  DOCKER, DRACO, updates on ESD, Fragmentator, GOAT, IRC, LR-CPCM, L-BFGS, MBIS, meta-GGA TD-DFT gradient, ML-optimized integration grids, 
  MM, NACMEs, nearIR, NEB, NEB-TS, NL-DFT gradient (VV10), 2- and 3-layer-ONIOM, interface openCOSMO-RS, QMMM,   
  Crystal-QMMM, RESP, rigid body optimization, SF, symmetry and pop. for TD-DFT, various functionals, SOLVATOR                                   
                                                                         
[Other institutions]                                                     
  V. Asgeirsson          : NEB                                           
  Christoph Bannwarth    : sTDA-DFT, sTD-DFT, PBEh-3c, B97-3c, D3        
  Giovanni Bistoni       : ETS/NOCV, ADLD/ADEX, COVALED                  
  Martin Brehm           : Molecular dynamics                            
  Ronald Cardenas        : ETS/NOCV                                      
  Martina Colucci        : COVALED                                       
  Sebastian Ehlert       : rSCAN, r2SCAN, r2SCAN-3c, D4, dhf basis sets  
  Marvin Friede          : D4 for Fr, Ra, Ac-Lr                          
  Lars Goerigk           : TD-DFT with DH, B97 family of functionals     
  Stefan Grimme          : VdW corrections, initial TS optimization, DFT functionals, gCP, sTDA/sTD-DF 
  Waldemar Hujo          : DFT-NL                                        
  H. Jonsson             : NEB                                           
  Holger Kruse           : gCP                                           
  Marcel Mueller         : wB97X-3c, vDZP basis set                      
  Hagen Neugebauer       : wr2SCAN, Native XTB                           
  Gianluca Regni         : ADLD/ADEX                                     
  Tobias Risthaus        : pre 6.0 range-separated hybrid DFT and stability analysis
  Lukas Wittmann         : regularized MP2, r2SCAN double-hybrids, wr2SCAN        
                                                                         
We gratefully acknowledge several colleagues who have allowed us to      
interface, adapt or use parts of their codes:                            
  Ed Valeev, F. Pavosevic, A. Kumar             : LibInt (2-el integral package), F12 methods 
  Garnet Chan, S. Sharma, J. Yang, R. Olivares  : DMRG                   
  Ulf Ekstrom                                   : XCFun DFT Library      
  Mihaly Kallay                                 : mrcc  (arbitrary order and MRCC methods)
  Frank Weinhold                                : gennbo (NPA and NBO analysis)           
  Simon Mueller                                 : openCOSMO-RS                            
  Christopher J. Cramer and Donald G. Truhlar   : smd solvation model                     
  S Lehtola, MJT Oliveira, MAL Marques          : LibXC Library                           
  Liviu Ungur et al                             : ANISO software                          


 Your calculation uses the libint2 library for the computation of 2-el integrals
 For citations please refer to: http://libint.valeyev.net

 Your ORCA version has been built with support for libXC version: 7.0.0
 For citations please refer to: https://libxc.gitlab.io

 This ORCA versions uses:
   CBLAS   interface :  Fast vector & matrix operations
   LAPACKE interface :  Fast linear algebra routines
   SCALAPACK package :  Parallel linear algebra routines
   Shared memory     :  Shared parallel matrices
   BLAS/LAPACK       :  OpenBLAS 0.3.29  USE64BITINT DYNAMIC_ARCH NO_AFFINITY SkylakeX SINGLE_THREADED
        Core in use  :  SkylakeX
   Copyright (c) 2011-2014, The OpenBLAS Project


  ***********************************
  * Starting time: Wed Jan 28 12:00:45 2026
  * Host name:     bp1-compute197.data.bp.acrc.priv
  * Process ID:    2522724
  * Working dir.:  /user/work/kp22738/Diss/Orca/pyruvic_anion/dyson_orbitals/0_wat/15365182_s1_freq_0_wat
  ***********************************

NOTE: MaxCore=8000 MB was set to SCF,MP2,MDCI,CIPSI,MRCI,RASCI and CIS
      => If you want to overwrite this, your respective input block should be placed after the MaxCore statement
Using LibXC functional ID 471 : wB97X-D range-separated functional
[ 1]  J.-D. Chai and M. Head-Gordon.,  Phys. Chem. Chem. Phys. 10, 6615-6620 (2008)
Using LibXC functional ID 471 : wB97X-D range-separated functional
[ 1]  J.-D. Chai and M. Head-Gordon.,  Phys. Chem. Chem. Phys. 10, 6615-6620 (2008)
Your calculation utilizes LibXC
by S. Lehtola, C. Steigemann, M. J. T. Oliveira & M. A. L. Marques
Please cite in your paper:
Lehtola, S.; Steigemann, C.; Oliveira, M.J.T.; Marques, M. A. L. Software X, 7, (2018), 1.
   

================================================================================

----- Orbital basis set information -----
Your calculation utilizes the basis: aug-cc-pVDZ 
    H, B-Ne : Obtained from the ccRepo (grant-hill.group.shef.ac.uk/ccrepo) Feb. 2017
              R. A. Kendall, T. H. Dunning, Jr., R. J. Harrison, J. Chem. Phys. 96, 6796 (1992)
         He : Obtained from the ccRepo (grant-hill.group.shef.ac.uk/ccrepo) Feb. 2017
              D. E. Woon, T. H. Dunning, Jr., J. Chem. Phys. 100, 2975 (1994)
  Li-Be, Na : Obtained from the ccRepo (grant-hill.group.shef.ac.uk/ccrepo) Feb. 2017
              B. P. Prascher, D. E. Woon, K. A. Peterson, T. H. Dunning, Jr., A. K. Wilson, Theor. Chem. Acc. 128, 69 (2011)
         Mg : Obtained from the Peterson Research Group Website (tyr0.chem.wsu.edu/~kipeters) Feb. 2017
              B. P. Prascher, D. E. Woon, K. A. Peterson, T. H. Dunning, Jr., A. K. Wilson, Theor. Chem. Acc. 128, 69 (2011)
      Al-Ar : Obtained from the ccRepo (grant-hill.group.shef.ac.uk/ccrepo) Feb. 2017
              D. E. Woon, T. H. Dunning, Jr., J. Chem. Phys. 98, 1358 (1993)
      Sc-Zn : Obtained from the ccRepo (grant-hill.group.shef.ac.uk/ccrepo) Feb. 2017
              N. B. Balabanov, K. A. Peterson, J. Chem. Phys. 123, 064107 (2005)
              N. B. Balabanov, K. A. Peterson, J. Chem. Phys. 125, 074110 (2006)
      Ga-Kr : Obtained from the ccRepo (grant-hill.group.shef.ac.uk/ccrepo) Feb. 2017
              A. K. Wilson, D. E. Woon, K. A. Peterson, T. H. Dunning, Jr., J. Chem. Phys. 110, 7667 (1999)

================================================================================
                                        WARNINGS
                       Please study these warnings very carefully!
================================================================================


WARNING: Analytical Frequencies for this method not available!
  ===> : Switching to Numerical Frequencies!

WARNING: The environment variable RSH_COMMAND is not set!
  ===> : All Displacements for the Numerical Hessian or Gradient calculation
         will be started on localhost

WARNING: CIS/ROCIS methods need fully converged wavefunctions
  ===> : Setting SCFConvForced true
         You can overwrite this default with %scf ConvForced false 


================================================================================
                                       INPUT FILE
================================================================================
NAME = s1_freq_0_wat.inp
|  1> ! aug-cc-pVDZ TightSCF Engrad ANFREQ
|  2> 
|  3> %PAL NPROCS 8 END
|  4> 
|  5> %maxcore 8000
|  6> 
|  7> %method
|  8> method dft
|  9> functional hyb_gga_xc_wb97x_d
| 10> end
| 11> 
| 12> %TDDFT
| 13> NROOTS 10
| 14> DONTO TRUE
| 15> IROOT 1
| 16> END
| 17> 
| 18> * xyz 0 1
| 19>   C     -0.632075   -0.215377   -0.000041
| 20>   C      0.724963    0.275601   -0.000006
| 21>   C     -1.782459    0.756586   -0.000045
| 22>   H     -2.421252    0.599441    0.886501
| 23>   H     -2.421344    0.599396   -0.886518
| 24>   H     -1.415701    1.790817   -0.000074
| 25>   O     -0.837573   -1.488634    0.000082
| 26>   O      1.122316    1.451584   -0.000009
| 27>   O      1.635045   -0.757426    0.000019
| 28>   H      1.036465   -1.534650   -0.000046
| 29> * 
| 30> 
| 31>                          ****END OF INPUT****
================================================================================

                     *******************************
                     * Energy+Gradient Calculation *
                     *******************************

---------------------------------
CARTESIAN COORDINATES (ANGSTROEM)
---------------------------------
  C     -0.632075   -0.215377   -0.000041
  C      0.724963    0.275601   -0.000006
  C     -1.782459    0.756586   -0.000045
  H     -2.421252    0.599441    0.886501
  H     -2.421344    0.599396   -0.886518
  H     -1.415701    1.790817   -0.000074
  O     -0.837573   -1.488634    0.000082
  O      1.122316    1.451584   -0.000009
  O      1.635045   -0.757426    0.000019
  H      1.036465   -1.534650   -0.000046

----------------------------
CARTESIAN COORDINATES (A.U.)
----------------------------
  NO LB      ZA    FRAG     MASS         X           Y           Z
   0 C     6.0000    0    12.011   -1.194449   -0.407004   -0.000077
   1 C     6.0000    0    12.011    1.369982    0.520810   -0.000011
   2 C     6.0000    0    12.011   -3.368359    1.429740   -0.000085
   3 H     1.0000    0     1.008   -4.575503    1.132779    1.675244
   4 H     1.0000    0     1.008   -4.575677    1.132694   -1.675276
   5 H     1.0000    0     1.008   -2.675287    3.384154   -0.000140
   6 O     8.0000    0    15.999   -1.582784   -2.813111    0.000155
   7 O     8.0000    0    15.999    2.120870    2.743096   -0.000017
   8 O     8.0000    0    15.999    3.089787   -1.431328    0.000036
   9 H     1.0000    0     1.008    1.958635   -2.900068   -0.000087

--------------------------------
INTERNAL COORDINATES (ANGSTROEM)
--------------------------------
 C      0   0   0     0.000000000000     0.00000000     0.00000000
 C      1   0   0     1.443125611703     0.00000000     0.00000000
 C      1   2   0     1.506019727906   119.91524408     0.00000000
 H      3   1   2     1.103954191980   110.49514023   239.01990719
 H      3   1   2     1.103955216055   110.49766591   120.98971818
 H      3   1   2     1.097335496904   110.66909508     0.00000000
 O      1   2   3     1.289733627995   119.05840778   180.00764715
 O      2   1   3     1.241299892414   128.55978680     0.00000000
 O      2   1   3     1.376733100524   111.48940417   179.99880495
 H      9   2   1     0.981007220565   101.01870071     0.00000000

---------------------------
INTERNAL COORDINATES (A.U.)
---------------------------
 C      0   0   0     0.000000000000     0.00000000     0.00000000
 C      1   0   0     2.727112182966     0.00000000     0.00000000
 C      1   2   0     2.845964838024   119.91524408     0.00000000
 H      3   1   2     2.086171087236   110.49514023   239.01990719
 H      3   1   2     2.086173022457   110.49766591   120.98971818
 H      3   1   2     2.073663566179   110.66909508     0.00000000
 O      1   2   3     2.437243342620   119.05840778   180.00764715
 O      2   1   3     2.345716846728   128.55978680     0.00000000
 O      2   1   3     2.601648519494   111.48940417   179.99880495
 H      9   2   1     1.853834982267   101.01870071     0.00000000

---------------------
BASIS SET INFORMATION
---------------------
There are 3 groups of distinct atoms

 Group   1 Type C   : 18s5p2d contracted to 4s3p2d pattern {8811/311/11}
 Group   2 Type H   : 5s2p contracted to 3s2p pattern {311/11}
 Group   3 Type O   : 18s5p2d contracted to 4s3p2d pattern {8811/311/11}

Atom   0C    basis set group =>   1
Atom   1C    basis set group =>   1
Atom   2C    basis set group =>   1
Atom   3H    basis set group =>   2
Atom   4H    basis set group =>   2
Atom   5H    basis set group =>   2
Atom   6O    basis set group =>   3
Atom   7O    basis set group =>   3
Atom   8O    basis set group =>   3
Atom   9H    basis set group =>   2


           ************************************************************
           *        Program running with 8 parallel MPI-processes     *
           *              working on a common directory               *
           ************************************************************
------------------------------------------------------------------------------
                             ORCA STARTUP CALCULATIONS
------------------------------------------------------------------------------
------------------------------------------------------------------------------
                   ___                                                        
                  /   \      - P O W E R E D   B Y -                         
                 /     \                                                     
                 |  |  |   _    _      __       _____    __    __             
                 |  |  |  | |  | |    /  \     |  _  \  |  |  /  |          
                  \  \/   | |  | |   /    \    | | | |  |  | /  /          
                 / \  \   | |__| |  /  /\  \   | |_| |  |  |/  /          
                |  |  |   |  __  | /  /__\  \  |    /   |      \           
                |  |  |   | |  | | |   __   |  |    \   |  |\   \          
                \     /   | |  | | |  |  |  |  | |\  \  |  | \   \       
                 \___/    |_|  |_| |__|  |__|  |_| \__\ |__|  \__/        
                                                                              
                      - O R C A' S   B I G   F R I E N D -                    
                                      &                                       
                       - I N T E G R A L  F E E D E R -                       
                                                                              
 v1 FN, 2020, v2 2021, v3 2022-2024                                           
------------------------------------------------------------------------------


----------------------
SHARK INTEGRAL PACKAGE
----------------------

Number of atoms                             ...     10
Number of basis functions                   ...    210
Number of shells                            ...    110
Maximum angular momentum                    ...      2
Integral batch strategy                     ... SHARK/LIBINT Hybrid
RI-J (if used) integral strategy            ... SPLIT-RIJ (Revised 2003 algorithm where possible)
Printlevel                                  ...      1
Contraction scheme used                     ... PARTIAL GENERAL contraction
Prescreening option                         ... SCHWARTZ
   Thresh                                   ... 2.500e-11
   Tcut                                     ... 2.500e-12
   Tpresel                                  ... 2.500e-12 
Coulomb Range Separation                    ... NOT USED
Exchange Range Separation                   ... Long Range
   Mu parameter                             ... 2.000e-01
   Scaling (regular/separated)              ... 2.220e-01 7.780e-01
Robust (split-)RI terms used:
  metric    (central integrals)             ... YES
  density   (r.h.s.  integrals)             ... YES
  potential (l.h.s.  integrals)             ... YES
Multipole approximations                    ... NOT USED
Finite Nucleus Model                        ... NOT USED
CABS basis                                  ... NOT available
Auxiliary Coulomb fitting basis             ... NOT available
Auxiliary J/K fitting basis                 ... NOT available
Auxiliary Correlation fitting basis         ... NOT available
Auxiliary 'external' fitting basis          ... NOT available

Checking pre-screening integrals            ... done (  0.0 sec) Dimension = 110
Save PGC pre-screening integrals            ... done (  0.0 sec) Dimension = 110
Calculate PGC overlap integrals             ... done (  0.0 sec) Dimension = 74
Calculating pre-screening integrals (ORCA)  ... done (  0.1 sec) Dimension = 74
Shell pair information
Shell pair cut-off parameter TPreSel        ...   2.5e-12
Total number of shell pairs                 ...      6105
Shell pairs after pre-screening             ...      5248
Total number of primitive shell pairs       ...      8545
Primitive shell pairs kept                  ...      6882
          la=0 lb=0:   1891 shell pairs
          la=1 lb=0:   1785 shell pairs
          la=1 lb=1:    351 shell pairs
          la=2 lb=0:    831 shell pairs
          la=2 lb=1:    312 shell pairs
          la=2 lb=2:     78 shell pairs

Checking whether 4 symmetric matrices of dimension 210 fit in memory
:Max Core in MB      =   8000.00
 MB in use           =      6.96
 MB left             =   7993.04
 MB needed           =      0.68
 Data fit in memory  = YES
Calculating Nuclear repulsion               ... done (  0.0 sec) ENN=    228.280983742235 Eh

Diagonalization of the overlap matrix:
Smallest eigenvalue                        ... 4.185e-05
Time for diagonalization                   ...    0.005 sec
Threshold for overlap eigenvalues          ... 1.000e-07
Number of eigenvalues below threshold      ... 0
Time for construction of square roots      ...    0.002 sec
Total time needed                          ...    0.009 sec

-------------------
DFT GRID GENERATION
-------------------

General Integration Accuracy     IntAcc      ... 4.388
Radial Grid Type                 RadialGrid  ... OptM3 with GC (2021)
Angular Grid (max. ang.)         AngularGrid ... 4 (Lebedev-302)
Angular grid pruning method      GridPruning ... 4 (adaptive)
Weight generation scheme         WeightScheme... mBecke (2022)
Basis function cutoff            BFCut       ... 1.0000e-11
Integration weight cutoff        WCut        ... 1.0000e-14
Partially contracted basis set               ... off
Rotationally invariant grid construction     ... off
Angular grids for H and He will be reduced by one unit
Diffuse basis detected: some atoms will have their outermost
                        angular grid increased by 1.

Total number of grid points                  ...    52016
Total number of batches                      ...      818
Average number of points per batch           ...       63
Average number of grid points per atom       ...     5202

---------------------
SHARK GRID GENERATION
---------------------

General Integration Accuracy     IntAcc      ... 4.388
Radial Grid Type                 RadialGrid  ... OptM3 with GC (2021)
Angular Grid (max. ang.)         AngularGrid ... 4 (Lebedev-302)
Angular grid pruning method      GridPruning ... 4 (adaptive)
Weight generation scheme         WeightScheme... mBecke (2022)
Basis function cutoff            BFCut       ... 1.0000e-11
Integration weight cutoff        WCut        ... 1.0000e-14
Partially contracted basis set               ... off
Rotationally invariant grid construction     ... off
Angular grids for H and He will be reduced by one unit
Diffuse basis detected: some atoms will have their outermost
                        angular grid increased by 1.
Steep s-basis detected: some atoms will have their radial
                        grid points doubled.

Total number of grid points                  ...    90685
Total number of batches                      ...     1422
Average number of points per batch           ...       63
Average number of grid points per atom       ...     9068
Grids setup in   1.5 sec
Initializing property integral containers    ... done (  0.0 sec)

SHARK setup successfully completed in   2.1 seconds

Maximum memory used throughout the entire STARTUP-calculation: 26.2 MB


           ************************************************************
           *        Program running with 8 parallel MPI-processes     *
           *              working on a common directory               *
           ************************************************************
-------------------------------------------------------------------------------
                                 ORCA GUESS
                   Start orbitals & Density for SCF / CASSCF
-------------------------------------------------------------------------------

------------
SCF SETTINGS
------------
Hamiltonian:
 Density Functional     Method          .... DFT(GTOs)
  Functional kind                       .... Exchange-Correlation
  Functional name                       .... wB97X-D range-separated functional
  Functional family                     .... Hybrid GGA
  Functional refs                              
    [ 0] J.-D. Chai and M. Head-Gordon.,  Phys. Chem. Chem. Phys. 10, 6615-6620 (2008), doi: 10.1039/B810189B
  Fraction of HF Exchange (short range) .... 0.2220
  Fraction of HF Exchange ( int64 range )  .... 1.0000
  Range separation parameter mu         .... 0.2000
  Functional external parameters        .... 18
    Parameter  0 _cx0       =  7.779640e-01 : u^0 coefficient for exchange
    Parameter  1 _cx1       =  6.611600e-01 : u^1 coefficient for exchange
    Parameter  2 _cx2       =  5.745410e-01 : u^2 coefficient for exchange
    Parameter  3 _cx3       = -5.256710e+00 : u^3 coefficient for exchange
    Parameter  4 _cx4       =  1.163860e+01 : u^4 coefficient for exchange
    Parameter  5 _css0      =  1.000000e+00 : u^0 coefficient for same-spin correlation
    Parameter  6 _css1      = -6.905390e+00 : u^1 coefficient for same-spin correlation
    Parameter  7 _css2      =  3.133430e+01 : u^2 coefficient for same-spin correlation
    Parameter  8 _css3      = -5.105330e+01 : u^3 coefficient for same-spin correlation
    Parameter  9 _css4      =  2.644230e+01 : u^4 coefficient for same-spin correlation
    Parameter 10 _cos0      =  1.000000e+00 : u^0 coefficient for opposite-spin correlation
    Parameter 11 _cos1      =  1.794130e+00 : u^1 coefficient for opposite-spin correlation
    Parameter 12 _cos2      = -1.204770e+01 : u^2 coefficient for opposite-spin correlation
    Parameter 13 _cos3      =  1.408470e+01 : u^3 coefficient for opposite-spin correlation
    Parameter 14 _cos4      = -8.508090e+00 : u^4 coefficient for opposite-spin correlation
    Parameter 15 _alpha     =  1.000000e+00 : fraction of HF exchange
    Parameter 16 _beta      = -7.779640e-01 : fraction of short-range exchange
    Parameter 17 _omega     =  2.000000e-01 : range-separation constant
 Long-range corrected/Screened/Range-Separated Hybrid DFT is turned on
   Amount of maximum screened exact exchange              ....  0.777964
   Range separation parameter mu (erf(mu*r12)/r12)        ....  0.200000


General Settings:
 Integral files         IntName         .... s1_freq_0_wat
 Hartree-Fock type      HFTyp           .... RHF
 Total Charge           Charge          ....    0
 Multiplicity           Mult            ....    1
 Number of Electrons    NEL             ....   46
 Basis Dimension        Dim             ....  174
 Nuclear Repulsion      ENuc            ....    228.2809837422 Eh

Convergence Acceleration:
 AO-DIIS                CNVDIIS         .... on
   Start iteration      DIISMaxIt       ....    12
   Startup error        DIISStart       ....  0.200000
   # of expansion vecs  DIISMaxEq       ....     5
   Bias factor          DIISBfac        ....   1.050
   Max. coefficient     DIISMaxC        ....  10.000
 MO-DIIS                CNVKDIIS        .... off
 Trust-Rad. Augm. Hess. CNVTRAH         .... auto
   Auto Start mean grad. ratio tolernc. ....  1.125000
   Auto Start start iteration           ....    50
   Auto Start num. interpolation iter.  ....    10
   Max. Number of Micro iterations      ....    24
   Max. Number of Macro iterations      .... Maxiter - #DIIS iter
   Number of Davidson start vectors     ....     2
   Converg. threshold    (grad. norm)   ....   1.000e-05
   Grad. Scal. Fac. for Micro threshold ....   0.100
   Minimum threshold for Micro iter.    ....   1.000e-02
   NR start threshold (gradient norm)   ....   1.000e-04
   Initial trust radius                 ....   0.400
   Minimum AH scaling param. (alpha)    ....   1.000
   Maximum AH scaling param. (alpha)    .... 1000.000
   Quad. conv. algorithm                .... NR
   White noise on init. David. guess    .... on
   Maximum white noise                  ....   0.010
   Pseudo random numbers                .... off
   Inactive MOs                         .... canonical
   Orbital update algorithm             .... Taylor
   Preconditioner                       .... Diag
   Full preconditioner red. dimension   ....   250
 SOSCF                 CNVSOSCF           .... on
   Start iteration     SOSCFMaxIt         ....   150
   Startup grad/error  SOSCFStart         ....  0.003300
   Hessian update      SOSCFHessUp        .... L-BFGS
   Autom. constraints  SOSCFAutoConstrain .... off
 Level Shifting         CNVShift        .... on
   Level shift para.    LevelShift      ....    0.2500
   Turn off err/grad.   ShiftErr        ....    0.0010
 Zerner damping         CNVZerner       .... off
 Static damping         CNVDamp         .... on
   Fraction old density DampFac         ....    0.7000
   Max. Damping (<1)    DampMax         ....    0.9800
   Min. Damping (>=0)   DampMin         ....    0.0000
   Turn off err/grad.   DampErr         ....    0.1000

SCF Procedure:
 Maximum # iterations   MaxIter         ....   125
 SCF integral mode      SCFMode         .... Direct
   Integral package                     .... SHARK and LIBINT hybrid scheme
 Reset frequency        DirectResetFreq ....    20
 Integral Threshold     Thresh          ....  2.500e-11 Eh
 Primitive CutOff       TCut            ....  2.500e-12 Eh

Convergence Tolerance:
 Convergence Check Mode ConvCheckMode   .... Total+1el-Energy
 Convergence forced     ConvForced      .... 1
 Energy Change          TolE            ....  1.000e-08 Eh
 1-El. energy change                    ....  1.000e-05 Eh
 Orbital Gradient       TolG            ....  1.000e-05
 Orbital Rotation angle TolX            ....  1.000e-05
 DIIS Error             TolErr          ....  5.000e-07

------------------------------
INITIAL GUESS: MODEL POTENTIAL
------------------------------
Loading Hartree-Fock densities                     ... done
Calculating cut-offs                               ... done
Initializing the effective Hamiltonian             ... done
Setting up the integral package (SHARK)            ... done
Starting the Coulomb interaction                   ... done (   0.1 sec)
Making the grid                                    ... done (   0.1 sec)
Mapping shells                                     ... done
Starting the XC term evaluation                    ... done (   0.1 sec)
  promolecular density results
     # of electrons  =     45.997777632
     EX+EC           =    -29.730021498
Transforming the Hamiltonian                       ... done (   0.0 sec)
Diagonalizing the Hamiltonian                      ... done (   0.0 sec)
Back transforming the eigenvectors                 ... done (   0.0 sec)
Now organizing SCF variables                       ... done
                      ------------------
                      INITIAL GUESS DONE (   0.4 sec)
                      ------------------
             **** ENERGY FILE WAS UPDATED (s1_freq_0_wat.en.tmp) ****
Finished Guess after   0.9 sec
Maximum memory used throughout the entire GUESS-calculation: 9.9 MB


           ************************************************************
           *        Program running with 8 parallel MPI-processes     *
           *              working on a common directory               *
           ************************************************************

-------------------------------------------------------------------------------------------
                                      ORCA LEAN-SCF
                              memory conserving SCF solver
-------------------------------------------------------------------------------------------

----------------------------------------D-I-I-S--------------------------------------------
Iteration    Energy (Eh)           Delta-E    RMSDP     MaxDP     DIISErr   Damp  Time(sec)
-------------------------------------------------------------------------------------------
               ***  Starting incremental Fock matrix formation  ***
    1    -342.2367519111630827     0.00e+00  9.20e-03  1.34e-01  1.11e-01  0.700   2.9
    2    -342.2709627613298835    -3.42e-02  6.79e-03  9.64e-02  6.53e-02  0.700   2.6
                               ***Turning on AO-DIIS***
    3    -342.2889998341412365    -1.80e-02  3.66e-03  3.88e-02  4.10e-02  0.700   2.6
    4    -342.3000997093449769    -1.11e-02  8.66e-03  9.12e-02  2.88e-02  0.000   2.5
    5    -342.3248805697134003    -2.48e-02  1.13e-03  1.66e-02  4.30e-03  0.000   2.6
    6    -342.3249909795642907    -1.10e-04  4.60e-04  7.04e-03  3.68e-03  0.000   2.5
                              *** Initializing SOSCF ***
---------------------------------------S-O-S-C-F--------------------------------------
Iteration    Energy (Eh)           Delta-E    RMSDP     MaxDP     MaxGrad    Time(sec)
--------------------------------------------------------------------------------------
    7    -342.3250265224974100    -3.55e-05  3.07e-04  5.47e-03  1.36e-03     2.5
               *** Restarting incremental Fock matrix formation ***
    8    -342.3250371847902898    -1.07e-05  1.70e-04  3.09e-03  2.99e-04     2.7
    9    -342.3250398507553882    -2.67e-06  1.32e-04  2.35e-03  1.98e-04     2.3
   10    -342.3250402342464440    -3.83e-07  5.32e-05  8.66e-04  1.26e-04     2.4
   11    -342.3250405095185442    -2.75e-07  2.27e-05  4.07e-04  3.49e-05     2.3
   12    -342.3250405305243476    -2.10e-08  8.30e-06  1.24e-04  1.63e-05     2.2
   13    -342.3250405447435014    -1.42e-08  4.12e-06  4.82e-05  6.48e-06     2.1
   14    -342.3250405455854661    -8.42e-10  3.01e-06  3.09e-05  3.76e-06     2.0
                 **** Energy Check signals convergence ****

               *****************************************************
               *                     SUCCESS                       *
               *           SCF CONVERGED AFTER  14 CYCLES          *
               *****************************************************

             **** ENERGY FILE WAS UPDATED (s1_freq_0_wat.en.tmp) ****

----------------
TOTAL SCF ENERGY
----------------

Total Energy       :       -342.32504054594006 Eh           -9315.13793 eV

Components:
Nuclear Repulsion  :        228.28098374223524 Eh            6211.84137 eV
Electronic Energy  :       -570.60602428817526 Eh          -15526.97930 eV
One Electron Energy:       -919.08735905105095 Eh          -25009.63851 eV
Two Electron Energy:        348.48133476287569 Eh            9482.65921 eV

Virial components:
Potential Energy   :       -682.30919040644267 Eh          -18566.57698 eV
Kinetic Energy     :        339.98414986050255 Eh            9251.43905 eV
Virial Ratio       :          2.00688529358324

DFT components:
N(Alpha)           :       23.000035578405 electrons
N(Beta)            :       23.000035578405 electrons
N(Total)           :       46.000071156809 electrons
E(XC)              :      -30.187631019297 Eh       

---------------
SCF CONVERGENCE
---------------

  Last Energy change         ...    8.4196e-10  Tolerance :   1.0000e-08
  Last MAX-Density change    ...    3.0946e-05  Tolerance :   1.0000e-07
  Last RMS-Density change    ...    3.0122e-06  Tolerance :   5.0000e-09
  Last DIIS Error            ...    1.3609e-03  Tolerance :   5.0000e-07
  Last Orbital Gradient      ...    3.7633e-06  Tolerance :   1.0000e-05
  Last Orbital Rotation      ...    6.9947e-06  Tolerance :   1.0000e-05


----------------
ORBITAL ENERGIES
----------------

  NO   OCC          E(Eh)            E(eV) 
   0   2.0000     -19.334286      -526.1127 
   1   2.0000     -19.329287      -525.9766 
   2   2.0000     -19.301361      -525.2167 
   3   2.0000     -10.466355      -284.8040 
   4   2.0000     -10.451829      -284.4087 
   5   2.0000     -10.337639      -281.3015 
   6   2.0000      -1.231409       -33.5084 
   7   2.0000      -1.169464       -31.8227 
   8   2.0000      -1.140784       -31.0423 
   9   2.0000      -0.899177       -24.4678 
  10   2.0000      -0.805845       -21.9282 
  11   2.0000      -0.696670       -18.9573 
  12   2.0000      -0.630509       -17.1570 
  13   2.0000      -0.591676       -16.1003 
  14   2.0000      -0.587307       -15.9814 
  15   2.0000      -0.550333       -14.9753 
  16   2.0000      -0.532149       -14.4805 
  17   2.0000      -0.524208       -14.2644 
  18   2.0000      -0.493303       -13.4235 
  19   2.0000      -0.469714       -12.7816 
  20   2.0000      -0.434982       -11.8365 
  21   2.0000      -0.426968       -11.6184 
  22   2.0000      -0.382401       -10.4056 
  23   0.0000      -0.067458        -1.8356 
  24   0.0000       0.030816         0.8385 
  25   0.0000       0.051691         1.4066 
  26   0.0000       0.053690         1.4610 
  27   0.0000       0.061365         1.6698 
  28   0.0000       0.089667         2.4400 
  29   0.0000       0.098274         2.6742 
  30   0.0000       0.104848         2.8531 
  31   0.0000       0.116709         3.1758 
  32   0.0000       0.123935         3.3724 
  33   0.0000       0.130883         3.5615 
*Only the first 10 virtual orbitals were printed.

                    ********************************
                    * MULLIKEN POPULATION ANALYSIS *
                    ********************************

-----------------------
MULLIKEN ATOMIC CHARGES
-----------------------
   0 C :    0.201371
   1 C :    0.869573
   2 C :    0.549483
   3 H :    0.005669
   4 H :    0.005660
   5 H :   -0.187884
   6 O :   -0.662420
   7 O :   -0.499697
   8 O :   -0.471272
   9 H :    0.189518
Sum of atomic charges:    0.0000000

--------------------------------
MULLIKEN REDUCED ORBITAL CHARGES
--------------------------------
  0 C s       :     3.158430  s :     3.158430
      pz      :     0.673482  p :     2.321014
      px      :     0.829794
      py      :     0.817739
      dz2     :     0.011630  d :     0.319185
      dxz     :     0.062945
      dyz     :     0.020902
      dx2y2   :     0.152918
      dxy     :     0.070789

  1 C s       :     3.101939  s :     3.101939
      pz      :     0.737308  p :     1.922347
      px      :     0.564492
      py      :     0.620548
      dz2     :    -0.000394  d :     0.106141
      dxz     :     0.004940
      dyz     :     0.055044
      dx2y2   :     0.042641
      dxy     :     0.003910

  2 C s       :     3.007491  s :     3.007491
      pz      :     0.871531  p :     2.481648
      px      :     0.991589
      py      :     0.618528
      dz2     :    -0.007263  d :    -0.038621
      dxz     :    -0.017700
      dyz     :     0.003458
      dx2y2   :     0.006359
      dxy     :    -0.023476

  3 H s       :     0.994664  s :     0.994664
      pz      :     0.008425  p :    -0.000333
      px      :    -0.007118
      py      :    -0.001640

  4 H s       :     0.994684  s :     0.994684
      pz      :     0.008414  p :    -0.000344
      px      :    -0.007118
      py      :    -0.001640

  5 H s       :     1.178050  s :     1.178050
      pz      :    -0.010292  p :     0.009834
      px      :     0.020025
      py      :     0.000100

  6 O s       :     4.126469  s :     4.126469
      pz      :     1.355449  p :     4.498935
      px      :     1.860705
      py      :     1.282780
      dz2     :     0.001367  d :     0.037017
      dxz     :     0.001050
      dyz     :     0.017331
      dx2y2   :     0.008960
      dxy     :     0.008308

  7 O s       :     4.031670  s :     4.031670
      pz      :     1.375665  p :     4.428888
      px      :     1.759933
      py      :     1.293290
      dz2     :     0.002380  d :     0.039139
      dxz     :     0.002314
      dyz     :     0.016695
      dx2y2   :     0.007521
      dxy     :     0.010228

  8 O s       :     3.981919  s :     3.981919
      pz      :     1.759341  p :     4.468699
      px      :     1.503455
      py      :     1.205902
      dz2     :     0.001302  d :     0.020653
      dxz     :     0.009730
      dyz     :     0.004087
      dx2y2   :     0.003707
      dxy     :     0.001826

  9 H s       :     0.734769  s :     0.734769
      pz      :     0.025240  p :     0.075714
      px      :     0.032734
      py      :     0.017739



                     *******************************
                     * LOEWDIN POPULATION ANALYSIS *
                     *******************************

----------------------
LOEWDIN ATOMIC CHARGES
----------------------
   0 C :   -0.245657
   1 C :   -0.348493
   2 C :    0.195008
   3 H :    0.014132
   4 H :    0.014132
   5 H :   -0.007992
   6 O :    0.116709
   7 O :    0.112012
   8 O :    0.254254
   9 H :   -0.104105

-------------------------------
LOEWDIN REDUCED ORBITAL CHARGES
-------------------------------
  0 C s       :     2.611448  s :     2.611448
      pz      :     0.584147  p :     2.467065
      px      :     0.956163
      py      :     0.926755
      dz2     :     0.100484  d :     1.167144
      dxz     :     0.128467
      dyz     :     0.165487
      dx2y2   :     0.367154
      dxy     :     0.405553

  1 C s       :     2.579374  s :     2.579374
      pz      :     0.645765  p :     2.445126
      px      :     0.900817
      py      :     0.898545
      dz2     :     0.118916  d :     1.323993
      dxz     :     0.097891
      dyz     :     0.238538
      dx2y2   :     0.405831
      dxy     :     0.462818

  2 C s       :     2.608090  s :     2.608090
      pz      :     0.943493  p :     2.804721
      px      :     0.917933
      py      :     0.943294
      dz2     :     0.066687  d :     0.392182
      dxz     :     0.089390
      dyz     :     0.028268
      dx2y2   :     0.111077
      dxy     :     0.096760

  3 H s       :     0.714416  s :     0.714416
      pz      :     0.115876  p :     0.271452
      px      :     0.086392
      py      :     0.069183

  4 H s       :     0.714420  s :     0.714420
      pz      :     0.115868  p :     0.271449
      px      :     0.086398
      py      :     0.069183

  5 H s       :     0.716635  s :     0.716635
      pz      :     0.073064  p :     0.291357
      px      :     0.090864
      py      :     0.127429

  6 O s       :     3.398667  s :     3.398667
      pz      :     1.235661  p :     4.314888
      px      :     1.659687
      py      :     1.419540
      dz2     :     0.020531  d :     0.169736
      dxz     :     0.001259
      dyz     :     0.026716
      dx2y2   :     0.061668
      dxy     :     0.059562

  7 O s       :     3.399127  s :     3.399127
      pz      :     1.262508  p :     4.325732
      px      :     1.615623
      py      :     1.447601
      dz2     :     0.018938  d :     0.163129
      dxz     :     0.003992
      dyz     :     0.031174
      dx2y2   :     0.051439
      dxy     :     0.057585

  8 O s       :     3.256587  s :     3.256587
      pz      :     1.556440  p :     4.312452
      px      :     1.481156
      py      :     1.274855
      dz2     :     0.023951  d :     0.176707
      dxz     :     0.014330
      dyz     :     0.017292
      dx2y2   :     0.045407
      dxy     :     0.075727

  9 H s       :     0.588724  s :     0.588724
      pz      :     0.113058  p :     0.515381
      px      :     0.231601
      py      :     0.170723



                      *****************************
                      * MAYER POPULATION ANALYSIS *
                      *****************************

  NA   - Mulliken gross atomic population
  ZA   - Total nuclear charge
  QA   - Mulliken gross atomic charge
  VA   - Mayer's total valence
  BVA  - Mayer's bonded valence
  FA   - Mayer's free valence

  ATOM       NA         ZA         QA         VA         BVA        FA
  0 C      5.7986     6.0000     0.2014     3.8400     3.8400     0.0000
  1 C      5.1304     6.0000     0.8696     2.9130     2.9130    -0.0000
  2 C      5.4505     6.0000     0.5495     3.8282     3.8282     0.0000
  3 H      0.9943     1.0000     0.0057     0.8973     0.8973    -0.0000
  4 H      0.9943     1.0000     0.0057     0.8972     0.8972     0.0000
  5 H      1.1879     1.0000    -0.1879     0.8786     0.8786     0.0000
  6 O      8.6624     8.0000    -0.6624     1.7218     1.7218     0.0000
  7 O      8.4997     8.0000    -0.4997     1.8202     1.8202    -0.0000
  8 O      8.4713     8.0000    -0.4713     1.8655     1.8655    -0.0000
  9 H      0.8105     1.0000     0.1895     0.9896     0.9896    -0.0000

  Mayer bond orders larger than 0.100000
B(  0-C ,  1-C ) :   0.6116 B(  0-C ,  2-C ) :   1.2961 B(  0-C ,  3-H ) :   0.1317 
B(  0-C ,  4-H ) :   0.1316 B(  0-C ,  5-H ) :   0.1633 B(  0-C ,  6-O ) :   1.5134 
B(  0-C ,  7-O ) :  -0.1049 B(  0-C ,  8-O ) :   0.1017 B(  1-C ,  5-H ) :  -0.1049 
B(  1-C ,  7-O ) :   1.7832 B(  1-C ,  8-O ) :   0.7777 B(  2-C ,  3-H ) :   0.8625 
B(  2-C ,  4-H ) :   0.8625 B(  2-C ,  5-H ) :   0.8582 B(  6-O ,  9-H ) :   0.1084 
B(  8-O ,  9-H ) :   0.9501 

-------
TIMINGS
-------

Total SCF time: 0 days 0 hours 0 min 36 sec 

Total time                  ....      36.590 sec
Sum of individual times     ....      34.634 sec  ( 94.7%)

SCF preparation             ....       0.389 sec  (  1.1%)
Fock matrix formation       ....      33.828 sec  ( 92.5%)
  Startup                   ....       0.012 sec  (  0.0% of F)
  Coulomb+Exchange Fock     ....      32.641 sec  ( 96.5% of F)
  XC integration            ....       2.880 sec  (  8.5% of F)
    XC Preparation          ....       0.000 sec  (  0.0% of XC)
    Basis function eval.    ....       0.953 sec  ( 33.1% of XC)
    Density eval.           ....       0.453 sec  ( 15.7% of XC)
    XC-Functional eval.     ....       0.296 sec  ( 10.3% of XC)
    XC-Potential eval.      ....       0.864 sec  ( 30.0% of XC)
Diagonalization             ....       0.000 sec  (  0.0%)
Density matrix formation    ....       0.067 sec  (  0.2%)
Total Energy calculation    ....       0.025 sec  (  0.1%)
Population analysis         ....       0.028 sec  (  0.1%)
Orbital Transformation      ....       0.026 sec  (  0.1%)
Orbital Orthonormalization  ....       0.000 sec  (  0.0%)
DIIS solution               ....       0.142 sec  (  0.4%)
SOSCF solution              ....       0.127 sec  (  0.3%)
Finished LeanSCF after  36.6 sec

Maximum memory used throughout the entire LEANSCF-calculation: 11.9 MB


           ************************************************************
           *        Program running with 8 parallel MPI-processes     *
           *              working on a common directory               *
           ************************************************************

------------------------------------------------------------------------------
                         ORCA PROPERTY INTEGRAL CALCULATIONS
------------------------------------------------------------------------------

GBWName                                   ... s1_freq_0_wat.gbw
Number of atoms                           ...     10
Number of basis functions                 ...    210
Max core memory                           ...   8000 MB

Dipole integrals                          ... YES
Quadrupole integrals                      ...  NO
Linear momentum integrals                 ... YES
Angular momentum integrals                ... YES
Higher moments length integrals           ...  NO
Higher moments velocity integrals         ...  NO
Kinetic energy integrals                  ...  NO
GIAO right hand sides                     ...  NO
GIAO dipole derivative integrals          ...  NO
SOC integrals                             ...  NO
EPR diamagnetic integrals (GIAO)          ...  NO
EPR gauge integrals                       ...  NO
Field gradient integrals                  ...  NO (   0 nuclei)
Spin-dipole/Fermi contact integrals       ...  NO (   0 nuclei)
Contact density integrals                 ...  NO (   0 nuclei)
Nucleus-orbit integrals                   ...  NO (   0 nuclei)
Geometric perturbations                   ...  NO (  10 nuclei)

Choice of electric origin   ... Center of mass
Position of electric origin ... (  0.1107, -0.0308,  0.0000) 
Choice of magnetic origin   ... GIAO
Position of magnetic origin ... (  0.0000,  0.0000,  0.0000) 

Calculating integrals                     ... Electric Dipole (Length)     done (  0.0 sec)
Calculating integrals                     ... Linear Momentum              done (  0.0 sec)
Calculating integrals                     ... Angular Momentum  (ElOri)    done (  0.0 sec)

Property integrals calculated in   0.0 sec

Maximum memory used throughout the entire PROPINT-calculation: 10.1 MB


           ************************************************************
           *        Program running with 8 parallel MPI-processes     *
           *              working on a common directory               *
           ************************************************************
------------------------------------------------------------------------------
                        ORCA TD-DFT/TDA CALCULATION
------------------------------------------------------------------------------

Input orbitals are from        ... s1_freq_0_wat.gbw
CI-vector output               ... s1_freq_0_wat.cis
Solver                         ... FN-2001
Tamm-Dancoff approximation     ... operative
CIS-Integral strategy          ... AO-integrals
Integral handling              ... AO integral Direct
Max. core memory used          ... 8000 MB
Reference state                ... RHF
Generation of triplets         ... off
Follow IRoot                   ... off
Number of operators            ... 1
Orbital ranges used for CIS calculation:
 Operator 0:  Orbitals   6... 22  to  23...173
XAS localization array:
 Operator 0:  Orbitals  -1... -1

-------------------
XC-INTEGRATION GRID
-------------------

General Integration Accuracy     IntAcc      ... 3.467
Radial Grid Type                 RadialGrid  ... OptM3 with GC (2021)
Angular Grid (max. ang.)         AngularGrid ... 1 (Lebedev-50)
Angular grid pruning method      GridPruning ... 4 (adaptive)
Weight generation scheme         WeightScheme... mBecke (2022)
Basis function cutoff            BFCut       ... 1.0000e-11
Integration weight cutoff        WCut        ... 1.0000e-14
Partially contracted basis set               ... off
Rotationally invariant grid construction     ... off
Angular grids for H and He will be reduced by one unit
Diffuse basis detected: some atoms will have their outermost
                        angular grid increased by 1.

Total number of grid points                  ...     7734
Total number of batches                      ...      126
Average number of points per batch           ...       61
Average number of grid points per atom       ...      773

---------------
TD-DFT XC SETUP
---------------

DFT calculation                         ... on
Name of the grid file                   ... s1_freq_0_wat.grid_cis.tmp
Functional (TD-DFT)
  Functional kind                       .... Exchange-Correlation
  Functional name                       .... wB97X-D range-separated functional
  Functional family                     .... Hybrid GGA
  Functional refs                              
    [ 0] J.-D. Chai and M. Head-Gordon.,  Phys. Chem. Chem. Phys. 10, 6615-6620 (2008), doi: 10.1039/B810189B
  Fraction of HF Exchange (short range) .... 0.2220
  Fraction of HF Exchange ( int64 range )  .... 1.0000
  Range separation parameter mu         .... 0.2000
  Functional external parameters        .... 18
    Parameter  0 _cx0       =  7.779640e-01 : u^0 coefficient for exchange
    Parameter  1 _cx1       =  6.611600e-01 : u^1 coefficient for exchange
    Parameter  2 _cx2       =  5.745410e-01 : u^2 coefficient for exchange
    Parameter  3 _cx3       = -5.256710e+00 : u^3 coefficient for exchange
    Parameter  4 _cx4       =  1.163860e+01 : u^4 coefficient for exchange
    Parameter  5 _css0      =  1.000000e+00 : u^0 coefficient for same-spin correlation
    Parameter  6 _css1      = -6.905390e+00 : u^1 coefficient for same-spin correlation
    Parameter  7 _css2      =  3.133430e+01 : u^2 coefficient for same-spin correlation
    Parameter  8 _css3      = -5.105330e+01 : u^3 coefficient for same-spin correlation
    Parameter  9 _css4      =  2.644230e+01 : u^4 coefficient for same-spin correlation
    Parameter 10 _cos0      =  1.000000e+00 : u^0 coefficient for opposite-spin correlation
    Parameter 11 _cos1      =  1.794130e+00 : u^1 coefficient for opposite-spin correlation
    Parameter 12 _cos2      = -1.204770e+01 : u^2 coefficient for opposite-spin correlation
    Parameter 13 _cos3      =  1.408470e+01 : u^3 coefficient for opposite-spin correlation
    Parameter 14 _cos4      = -8.508090e+00 : u^4 coefficient for opposite-spin correlation
    Parameter 15 _alpha     =  1.000000e+00 : fraction of HF exchange
    Parameter 16 _beta      = -7.779640e-01 : fraction of short-range exchange
    Parameter 17 _omega     =  2.000000e-01 : range-separation constant
Hybrid DFT                              ... on
   Exchange mixing (TD-DFT)             ...  0.222
   GGA exch. scaling (TD-DFT)           ...  1.000
   GGA corr. scaling (TD-DFT)           ...  1.000
Range-Separated Exchange                ... on
   Range Range separation parameter mu  .... 0.200
   Max. amount of RS exchange (TD-DFT)  ...  0.778

Building densities             ... done
Calculating rho(r) on the grid ... done
Building xc-kernel on the grid ... done
                    *** TD-DFT CALCULATION INITIALIZED ***

------------------------
DAVIDSON-DIAGONALIZATION
------------------------

Dimension of the eigenvalue problem            ...   2567
Number of roots to be determined               ...     10
Maximum size of the expansion space            ...    100
Maximum number of iterations                   ...    100
Convergence tolerance for the residual         ...    2.500e-07
Convergence tolerance for the energies         ...    2.500e-07
Orthogonality tolerance                        ...    1.000e-14
Level Shift                                    ...    0.000e+00
Constructing the preconditioner                ... o.k.
Building the initial guess                     ... o.k.
Number of trial vectors determined             ...    100


                       ****Iteration    0****
   Time for iteration     :  TOTAL=37.8 TRAFO=0.0 2-EL=37.0 XC=0.7
   Size of expansion space: 30
   Lowest Energy          :     0.114542070607
   Maximum Energy change  :     0.317174990468 (vector 9)
   Maximum residual norm  :     0.038515848485

                       ****Iteration    1****
   Time for iteration     :  TOTAL=12.4 TRAFO=0.0 2-EL=12.1 XC=0.3
   Size of expansion space: 40
   Lowest Energy          :     0.109551359518
   Maximum Energy change  :     0.030700262680 (vector 2)
   Maximum residual norm  :     0.001559796237

                       ****Iteration    2****
   Time for iteration     :  TOTAL=12.4 TRAFO=0.0 2-EL=12.1 XC=0.3
   Size of expansion space: 50
   Lowest Energy          :     0.109299324625
   Maximum Energy change  :     0.001845630661 (vector 5)
   Maximum residual norm  :     0.000126064416

                       ****Iteration    3****
   Time for iteration     :  TOTAL=12.7 TRAFO=0.0 2-EL=12.4 XC=0.3
   Size of expansion space: 60
   Lowest Energy          :     0.109291657809
   Maximum Energy change  :     0.000202278520 (vector 9)
   Maximum residual norm  :     0.000020674101

                       ****Iteration    4****
   Time for iteration     :  TOTAL=12.3 TRAFO=0.0 2-EL=12.1 XC=0.2
   Size of expansion space: 70
   Lowest Energy          :     0.109291522798
   Maximum Energy change  :     0.000034460989 (vector 9)
   Maximum residual norm  :     0.000003924552

                       ****Iteration    5****
   Time for iteration     :  TOTAL=12.8 TRAFO=0.0 2-EL=12.5 XC=0.3
   Size of expansion space: 80
   Lowest Energy          :     0.109291521067
   Maximum Energy change  :     0.000005607648 (vector 9)
   Maximum residual norm  :     0.000000394503

                       ****Iteration    6****
   Time for iteration     :  TOTAL=13.0 TRAFO=0.0 2-EL=12.8 XC=0.3
   Size of expansion space: 90
   Lowest Energy          :     0.109291521047
   Maximum Energy change  :     0.000000504090 (vector 9)
   Maximum residual norm  :     0.000000040462

      *** CONVERGENCE OF RESIDUAL NORM REACHED ***

Storing the converged CI vectors               ... s1_freq_0_wat.cis1

                 *** DAVIDSON DONE ***

Total time for solving the CIS problem:   114.675sec

------------------------------------
TD-DFT/TDA EXCITED STATES (SINGLETS)
------------------------------------

the weight of the individual excitations are printed if larger than 1.0e-02

STATE  1:  E=   0.109292 au      2.974 eV    23986.7 cm**-1 <S**2> =   0.000000 Mult 1
    20a ->  23a  :     0.023625 (c=  0.15370433)
    22a ->  23a  :     0.957417 (c=  0.97847682)

STATE  2:  E=   0.158775 au      4.320 eV    34847.1 cm**-1 <S**2> =   0.000000 Mult 1
    20a ->  23a  :     0.927220 (c= -0.96292257)
    22a ->  23a  :     0.021323 (c=  0.14602417)
    22a ->  30a  :     0.026572 (c= -0.16301023)
    22a ->  31a  :     0.014420 (c=  0.12008135)

STATE  3:  E=   0.208657 au      5.678 eV    45794.9 cm**-1 <S**2> =   0.000000 Mult 1
    19a ->  23a  :     0.022373 (c= -0.14957684)
    21a ->  23a  :     0.923148 (c=  0.96080611)

STATE  4:  E=   0.235898 au      6.419 eV    51773.7 cm**-1 <S**2> =   0.000000 Mult 1
    18a ->  23a  :     0.964221 (c= -0.98194755)

STATE  5:  E=   0.260252 au      7.082 eV    57118.7 cm**-1 <S**2> =   0.000000 Mult 1
    13a ->  23a  :     0.020763 (c= -0.14409288)
    15a ->  23a  :     0.083324 (c= -0.28865825)
    17a ->  23a  :     0.873845 (c= -0.93479696)

STATE  6:  E=   0.262465 au      7.142 eV    57604.4 cm**-1 <S**2> =   0.000000 Mult 1
    16a ->  23a  :     0.014318 (c=  0.11965784)
    19a ->  23a  :     0.849021 (c=  0.92142333)
    21a ->  23a  :     0.015222 (c=  0.12337552)
    22a ->  25a  :     0.025697 (c=  0.16030168)

STATE  7:  E=   0.281377 au      7.657 eV    61755.1 cm**-1 <S**2> =   0.000000 Mult 1
    20a ->  27a  :     0.011253 (c=  0.10608055)
    22a ->  24a  :     0.681483 (c=  0.82551975)
    22a ->  25a  :     0.108234 (c= -0.32898959)
    22a ->  27a  :     0.019287 (c= -0.13887623)
    22a ->  28a  :     0.078159 (c=  0.27956967)
    22a ->  34a  :     0.044941 (c=  0.21199318)

STATE  8:  E=   0.288303 au      7.845 eV    63275.1 cm**-1 <S**2> =   0.000000 Mult 1
    13a ->  23a  :     0.016494 (c= -0.12842778)
    15a ->  23a  :     0.100702 (c= -0.31733602)
    17a ->  23a  :     0.020968 (c=  0.14480483)
    18a ->  23a  :     0.012037 (c=  0.10971139)
    20a ->  23a  :     0.032893 (c=  0.18136338)
    20a ->  30a  :     0.013052 (c=  0.11424624)
    22a ->  26a  :     0.050144 (c=  0.22392840)
    22a ->  30a  :     0.518357 (c= -0.71997026)
    22a ->  31a  :     0.210579 (c=  0.45888899)

STATE  9:  E=   0.292387 au      7.956 eV    64171.5 cm**-1 <S**2> =   0.000000 Mult 1
    15a ->  23a  :     0.779766 (c=  0.88304354)
    17a ->  23a  :     0.063657 (c= -0.25230409)
    22a ->  30a  :     0.078499 (c= -0.28017677)
    22a ->  31a  :     0.031060 (c=  0.17623792)

STATE 10:  E=   0.295943 au      8.053 eV    64952.0 cm**-1 <S**2> =   0.000000 Mult 1
    16a ->  23a  :     0.882277 (c= -0.93929610)
    22a ->  24a  :     0.013309 (c=  0.11536512)
    22a ->  25a  :     0.036606 (c=  0.19132688)
    22a ->  35a  :     0.012148 (c=  0.11021813)

Storing amplitudes in GBW file ... 
... GBW file created

------------------------------------------
NATURAL TRANSITION ORBITALS FOR STATE    1
------------------------------------------

Making the (pseudo)densities                       ... done
Solving eigenvalue problem for the occupied space  ... done
Solving eigenvalue problem for the virtual space   ... done
Natural Transition Orbitals were saved in s1_freq_0_wat.s1.nto
Threshold for printing occupation numbers 0.001000

 E=   0.109292 au      2.974 eV    23986.7 cm**-1
    22a ->  23a  : n=  0.98409291
    21a ->  24a  : n=  0.01538089


------------------------------------------
NATURAL TRANSITION ORBITALS FOR STATE    2
------------------------------------------

Making the (pseudo)densities                       ... done
Solving eigenvalue problem for the occupied space  ... done
Solving eigenvalue problem for the virtual space   ... done
Natural Transition Orbitals were saved in s1_freq_0_wat.s2.nto
Threshold for printing occupation numbers 0.001000

 E=   0.158775 au      4.320 eV    34847.1 cm**-1
    22a ->  23a  : n=  0.95658056
    21a ->  24a  : n=  0.04289492


------------------------------------------
NATURAL TRANSITION ORBITALS FOR STATE    3
------------------------------------------

Making the (pseudo)densities                       ... done
Solving eigenvalue problem for the occupied space  ... done
Solving eigenvalue problem for the virtual space   ... done
Natural Transition Orbitals were saved in s1_freq_0_wat.s3.nto
Threshold for printing occupation numbers 0.001000

 E=   0.208657 au      5.678 eV    45794.9 cm**-1
    22a ->  23a  : n=  0.96743563
    21a ->  24a  : n=  0.01848839
    20a ->  25a  : n=  0.00417517
    19a ->  26a  : n=  0.00304756
    18a ->  27a  : n=  0.00253644
    17a ->  28a  : n=  0.00233425


------------------------------------------
NATURAL TRANSITION ORBITALS FOR STATE    4
------------------------------------------

Making the (pseudo)densities                       ... done
Solving eigenvalue problem for the occupied space  ... done
Solving eigenvalue problem for the virtual space   ... done
Natural Transition Orbitals were saved in s1_freq_0_wat.s4.nto
Threshold for printing occupation numbers 0.001000

 E=   0.235898 au      6.419 eV    51773.7 cm**-1
    22a ->  23a  : n=  0.98790050
    21a ->  24a  : n=  0.01068918


------------------------------------------
NATURAL TRANSITION ORBITALS FOR STATE    5
------------------------------------------

Making the (pseudo)densities                       ... done
Solving eigenvalue problem for the occupied space  ... done
Solving eigenvalue problem for the virtual space   ... done
Natural Transition Orbitals were saved in s1_freq_0_wat.s5.nto
Threshold for printing occupation numbers 0.001000

 E=   0.260252 au      7.082 eV    57118.7 cm**-1
    22a ->  23a  : n=  0.99157113
    21a ->  24a  : n=  0.00672859


------------------------------------------
NATURAL TRANSITION ORBITALS FOR STATE    6
------------------------------------------

Making the (pseudo)densities                       ... done
Solving eigenvalue problem for the occupied space  ... done
Solving eigenvalue problem for the virtual space   ... done
Natural Transition Orbitals were saved in s1_freq_0_wat.s6.nto
Threshold for printing occupation numbers 0.001000

 E=   0.262465 au      7.142 eV    57604.4 cm**-1
    22a ->  23a  : n=  0.89314870
    21a ->  24a  : n=  0.07044151
    20a ->  25a  : n=  0.01668410
    19a ->  26a  : n=  0.00711035
    18a ->  27a  : n=  0.00673741
    17a ->  28a  : n=  0.00203167
    16a ->  29a  : n=  0.00131136


------------------------------------------
NATURAL TRANSITION ORBITALS FOR STATE    7
------------------------------------------

Making the (pseudo)densities                       ... done
Solving eigenvalue problem for the occupied space  ... done
Solving eigenvalue problem for the virtual space   ... done
Natural Transition Orbitals were saved in s1_freq_0_wat.s7.nto
Threshold for printing occupation numbers 0.001000

 E=   0.281377 au      7.657 eV    61755.1 cm**-1
    22a ->  23a  : n=  0.95407073
    21a ->  24a  : n=  0.02976555
    20a ->  25a  : n=  0.01419841
    19a ->  26a  : n=  0.00107148


------------------------------------------
NATURAL TRANSITION ORBITALS FOR STATE    8
------------------------------------------

Making the (pseudo)densities                       ... done
Solving eigenvalue problem for the occupied space  ... done
Solving eigenvalue problem for the virtual space   ... done
Natural Transition Orbitals were saved in s1_freq_0_wat.s8.nto
Threshold for printing occupation numbers 0.001000

 E=   0.288303 au      7.845 eV    63275.1 cm**-1
    22a ->  23a  : n=  0.81592543
    21a ->  24a  : n=  0.18163575
    20a ->  25a  : n=  0.00163147


------------------------------------------
NATURAL TRANSITION ORBITALS FOR STATE    9
------------------------------------------

Making the (pseudo)densities                       ... done
Solving eigenvalue problem for the occupied space  ... done
Solving eigenvalue problem for the virtual space   ... done
Natural Transition Orbitals were saved in s1_freq_0_wat.s9.nto
Threshold for printing occupation numbers 0.001000

 E=   0.292387 au      7.956 eV    64171.5 cm**-1
    22a ->  23a  : n=  0.86137816
    21a ->  24a  : n=  0.13591881


------------------------------------------
NATURAL TRANSITION ORBITALS FOR STATE   10
------------------------------------------

Making the (pseudo)densities                       ... done
Solving eigenvalue problem for the occupied space  ... done
Solving eigenvalue problem for the virtual space   ... done
Natural Transition Orbitals were saved in s1_freq_0_wat.s10.nto
Threshold for printing occupation numbers 0.001000

 E=   0.295943 au      8.053 eV    64952.0 cm**-1
    22a ->  23a  : n=  0.89348157
    21a ->  24a  : n=  0.08085792
    20a ->  25a  : n=  0.00806493
    19a ->  26a  : n=  0.00761943
    18a ->  27a  : n=  0.00411303
    17a ->  28a  : n=  0.00200407
    16a ->  29a  : n=  0.00117683


-----------------------------
TD-DFT/TDA-EXCITATION SPECTRA
-----------------------------

Center of mass = (  0.1107, -0.0308,  0.0000)
Generating CIS transition densities           ... done

----------------------------------------------------------------------------------------------------
                     ABSORPTION SPECTRUM VIA TRANSITION ELECTRIC DIPOLE MOMENTS    
----------------------------------------------------------------------------------------------------
     Transition      Energy     Energy  Wavelength fosc(D2)      D2        DX        DY        DZ   
                      (eV)      (cm-1)    (nm)                 (au**2)    (au)      (au)      (au)  
----------------------------------------------------------------------------------------------------
  0-1A  ->  1-1A    2.973973   23986.7   416.9   0.000038606   0.00053   0.00002   0.00001  -0.02302
  0-1A  ->  2-1A    4.320489   34847.1   287.0   0.000038598   0.00036   0.00002   0.00001   0.01910
  0-1A  ->  3-1A    5.677848   45794.9   218.4   0.047330409   0.34025   0.05122   0.58106   0.00001
  0-1A  ->  4-1A    6.419124   51773.7   193.1   0.004690827   0.02983  -0.00003   0.00002   0.17271
  0-1A  ->  5-1A    7.081817   57118.7   175.1   0.001576350   0.00909   0.00011   0.00076   0.09531
  0-1A  ->  6-1A    7.142037   57604.4   173.6   0.187094749   1.06926   0.11107   1.02807  -0.00013
  0-1A  ->  7-1A    7.656660   61755.1   161.9   0.005196742   0.02770   0.05925   0.15554  -0.00002
  0-1A  ->  8-1A    7.845113   63275.1   158.0   0.000142470   0.00074   0.00004   0.00001   0.02723
  0-1A  ->  9-1A    7.956252   64171.5   155.8   0.000054445   0.00028  -0.00005  -0.00000  -0.01671
  0-1A  -> 10-1A    8.053020   64952.0   154.0   0.176250287   0.89333   0.92965   0.17052  -0.00002

----------------------------------------------------------------------------------------------------
                     ABSORPTION SPECTRUM VIA TRANSITION VELOCITY DIPOLE MOMENTS    
----------------------------------------------------------------------------------------------------
     Transition      Energy     Energy  Wavelength fosc(P2)      P2        PX        PY        PZ   
                      (eV)      (cm-1)    (nm)                 (au**2)    (au)      (au)      (au)  
----------------------------------------------------------------------------------------------------
  0-1A  ->  1-1A    2.973973   23986.7   416.9   0.002638799   0.00043  -0.00000   0.00000   0.02080
  0-1A  ->  2-1A    4.320489   34847.1   287.0   0.001476445   0.00035   0.00000   0.00000   0.01875
  0-1A  ->  3-1A    5.677848   45794.9   218.4   0.006918999   0.00217  -0.02566   0.03882   0.00000
  0-1A  ->  4-1A    6.419124   51773.7   193.1   0.000001309   0.00000   0.00001   0.00000  -0.00068
  0-1A  ->  5-1A    7.081817   57118.7   175.1   0.000011631   0.00000   0.00001   0.00001  -0.00213
  0-1A  ->  6-1A    7.142037   57604.4   173.6   0.000981880   0.00039   0.01917   0.00438  -0.00001
  0-1A  ->  7-1A    7.656660   61755.1   161.9   0.000794873   0.00034  -0.01554  -0.00970  -0.00000
  0-1A  ->  8-1A    7.845113   63275.1   158.0   0.000244128   0.00011  -0.00001  -0.00000   0.01027
  0-1A  ->  9-1A    7.956252   64171.5   155.8   0.000487284   0.00021   0.00001  -0.00000  -0.01462
  0-1A  -> 10-1A    8.053020   64952.0   154.0   0.040630480   0.01804  -0.13145   0.02752  -0.00000

------------------------------------------------------------------------------------------
                     CD SPECTRUM VIA TRANSITION ELECTRIC DIPOLE MOMENTS    
------------------------------------------------------------------------------------------
     Transition      Energy     Energy  Wavelength    R        MX        MY        MZ   
                      (eV)      (cm-1)    (nm)   (1e40*cgs)   (au)      (au)      (au)  
------------------------------------------------------------------------------------------
  0-1A  ->  1-1A    2.973973   23986.7   416.9   -0.00074  -0.00863   0.13655  -0.00003
  0-1A  ->  2-1A    4.320489   34847.1   287.0    0.00493  -0.18644  -0.53119   0.00003
  0-1A  ->  3-1A    5.677848   45794.9   218.4    0.00526  -0.00002  -0.00002  -0.00963
  0-1A  ->  4-1A    6.419124   51773.7   193.1   -0.00175  -0.02840  -0.01568   0.00002
  0-1A  ->  5-1A    7.081817   57118.7   175.1    0.01304   0.29134  -0.09268   0.00010
  0-1A  ->  6-1A    7.142037   57604.4   173.6   -0.00151  -0.00021   0.00004   0.14534
  0-1A  ->  7-1A    7.656660   61755.1   161.9   -0.01586  -0.00000   0.00016  -0.45995
  0-1A  ->  8-1A    7.845113   63275.1   158.0    0.00571  -0.03542  -0.32844  -0.00024
  0-1A  ->  9-1A    7.956252   64171.5   155.8    0.00254   0.14102  -0.28593  -0.00005
  0-1A  -> 10-1A    8.053020   64952.0   154.0   -0.00972   0.00002   0.00003   0.05616

------------------------------------------------------------------------------------------
                     CD SPECTRUM VIA TRANSITION VELOCITY DIPOLE MOMENTS    
------------------------------------------------------------------------------------------
     Transition      Energy     Energy  Wavelength    R        MX        MY        MZ   
                      (eV)      (cm-1)    (nm)   (1e40*cgs)   (au)      (au)      (au)  
------------------------------------------------------------------------------------------
  0-1A  ->  1-1A    2.973973   23986.7   416.9   -0.00119  -0.00863   0.13655  -0.00003
  0-1A  ->  2-1A    4.320489   34847.1   287.0   -0.00210  -0.18644  -0.53119   0.00003
  0-1A  ->  3-1A    5.677848   45794.9   218.4   -0.00040  -0.00002  -0.00002  -0.00963
  0-1A  ->  4-1A    6.419124   51773.7   193.1   -0.00054  -0.02840  -0.01568   0.00002
  0-1A  ->  5-1A    7.081817   57118.7   175.1    0.00388   0.29134  -0.09268   0.00010
  0-1A  ->  6-1A    7.142037   57604.4   173.6   -0.00882  -0.00021   0.00004   0.14534
  0-1A  ->  7-1A    7.656660   61755.1   161.9   -0.00020  -0.00000   0.00016  -0.45995
  0-1A  ->  8-1A    7.845113   63275.1   158.0   -0.00325  -0.03542  -0.32844  -0.00024
  0-1A  ->  9-1A    7.956252   64171.5   155.8    0.00440   0.14102  -0.28593  -0.00005
  0-1A  -> 10-1A    8.053020   64952.0   154.0   -0.00251   0.00002   0.00003   0.05616

Total run time:      115.950 sec

           *** ORCA-CIS/TD-DFT FINISHED WITHOUT ERROR ***
-----------------------
CIS/TD-DFT TOTAL ENERGY
-----------------------

    E(SCF)  =   -342.325040546 Eh
    DE(CIS) =      0.109291521 Eh (Root  1)
    ----------------------------- ---------
    E(tot)  =   -342.215749025 Eh


------------------------
TD-DFT GRADIENT XC SETUP
------------------------

Building densities                     ... done
Calculating rho(r) on the grid         ... done
Building xc-kernel on the grid         ... done
Building xc 3rd derivative on the grid ... done
                *** TD-DFT GRADIENT CALCULATION INITIALIZED ***

--------------------------
TD-DFT/TDA RELAXED DENSITY
--------------------------

Reference wavefunction             ... RHF
State of interest                  ... 1
Basis dimension                    ... 174
DFT-XC contribution needed         ... YES
RI-approximation                   ... NO
Do Coulomb                         ... YES
Do Exchange                        ... YES
Need Hartree-Fock Exchange         ... YES
facj, facx                         ...  2.000, -1.000
Conventional                       ... NO
Range separation                   ... YES
Triplet state                      ... NO
Spin Flip                          ... NO
CIS-vectors being read from        ... s1_freq_0_wat.cis
 => Number of Vectors found: 10
 => Orbital Window: 6...22 -> 23...173

Reading the CIS file                     ... done
Norm of the CI vector                    ... 1.000000000
Making the CIS (pseudo)densities         ... done
Making operators G(D) and Q(T)           ... (SHARK-ok)done
Transforming the Fock operators          ... done
Making the frozen-core relaxed density   ... done
Constructing the G(H) operator           ... (SHARK-ok)done
Transforming the G(H) operator           ... done
Calculating the CIS Lagrangian           ... done
Solving the Z-vector equations           ... 

Using XC Grid                  ... (s1_freq_0_wat.grid_cpscf.tmp) 
Recalculating density on grid  ... (s1_freq_0_wat.grho_cpscf0.tmp) done
Calculating the xc-kernel      ... (s1_freq_0_wat.fxc_cpscf0.tmp) done

-------------------
SHARK CP-SCF DRIVER
-------------------

Dimension of the orbital basis          ...    174
Dimension of the CPSCF-problem          ...   3473
Number of operators                     ...      1
Max. number of iterations               ...    128
Convergence Tolerance                   ... 1.0e-04
Number of perturbations                 ...      1
Perturbation type                       ... REAL

----------------------------
POPLE LINEAR EQUATION SOLVER
----------------------------

  ITERATION   0:   ||err||_max =   1.4290e+00 (   3.6 sec)
  ITERATION   1:   ||err||_max =   5.6866e-02 (   3.7 sec)
  ITERATION   2:   ||err||_max =   1.7287e-02 (   3.6 sec)
  ITERATION   3:   ||err||_max =   6.7307e-03 (   3.7 sec)
  ITERATION   4:   ||err||_max =   2.6620e-03 (   3.7 sec)
  ITERATION   5:   ||err||_max =   1.0850e-03 (   3.8 sec)
  ITERATION   6:   ||err||_max =   2.9466e-04 (   3.9 sec)
  ITERATION   7:   ||err||_max =   8.7089e-05 (   4.1 sec)

Finalizing the relaxed density           ... done
Storing the relaxed density              ... done
Constructing the G(Z) operator           ... (SHARK-ok)done
Adding the XC terms                      ... done
Transforming the G(Z) operator           ... done
[...]
     10       0.321663   0.049114  -0.106028   0.399334  -0.364392  -0.339438
     11       0.001881  -0.024010   0.027339   0.025955  -0.077009   0.190819
     12      -0.276551   0.045467  -0.101054  -0.298989   0.070593  -0.530131
     13       0.321725  -0.048986   0.105970   0.399396  -0.364293   0.339518
     14      -0.001862  -0.024025   0.027344  -0.025945   0.077078   0.190855
     15      -0.173577  -0.000037  -0.000069   0.047840  -0.706798   0.000109
     16       0.194597   0.000033   0.000041   0.066485   0.409478  -0.000052
     17       0.000033  -0.042777   0.061637   0.000011   0.000062   0.317381
     18       0.134705   0.000003  -0.000018  -0.021869  -0.019044   0.000005
     19      -0.044109  -0.000009   0.000024  -0.236770  -0.099227   0.000016
     20       0.000007  -0.018168   0.008760   0.000020   0.000006  -0.010176
     21       0.070488  -0.000001  -0.000016   0.025812  -0.008607   0.000004
     22      -0.225895  -0.000049  -0.000045   0.299762   0.000935   0.000007
     23      -0.000034   0.056925  -0.108437  -0.000007   0.000001   0.000881
     24       0.217899   0.000065   0.000061   0.133298  -0.027015   0.000009
     25       0.156461   0.000040   0.000038  -0.289633   0.026189  -0.000010
     26       0.000065  -0.040161  -0.164950  -0.000008   0.000002  -0.000246
     27       0.481555   0.000015  -0.000064  -0.177518  -0.065589   0.000022
     28      -0.046826  -0.000012   0.000033  -0.042268   0.045733  -0.000020
     29      -0.000872   0.982247   0.819058   0.000094  -0.000022   0.019227
                 18         19         20         21         22         23    
      0      -0.333336  -0.399341  -0.015515   0.039872  -0.055055   0.000008
      1      -0.007182   0.097391  -0.569709  -0.063930   0.061868   0.000011
      2      -0.000011   0.000005   0.000045   0.000015  -0.000002   0.017895
      3      -0.409863   0.299721   0.023065  -0.029529   0.049078  -0.000015
      4       0.141696  -0.208160  -0.314456   0.070275   0.014598  -0.000021
      5      -0.000012  -0.000005  -0.000010  -0.000011   0.000000  -0.000213
      6       0.221842   0.147632  -0.099901  -0.030580  -0.077209  -0.000009
      7      -0.022616  -0.124843   0.154120   0.020281   0.073843  -0.000011
      8       0.000021   0.000006   0.000006   0.000003   0.000001   0.055561
      9       0.206397  -0.060167   0.029842   0.055864   0.314101  -0.005372
     10      -0.412757   0.063414  -0.407189  -0.038600  -0.438595  -0.484802
     11      -0.075667  -0.097261  -0.015466   0.045850   0.175398  -0.058115
     12       0.206599  -0.060103   0.029881   0.055843   0.314074   0.005614
     13      -0.412870   0.063470  -0.407168  -0.038487  -0.438587   0.484957
     14       0.075611   0.097232   0.015458  -0.045861  -0.175406  -0.058356
     15      -0.184920  -0.086783   0.174210   0.048451   0.550133  -0.000126
     16       0.097752  -0.057932   0.050052  -0.006600  -0.162291   0.000009
     17      -0.000035  -0.000064  -0.000052  -0.000082  -0.000029  -0.720784
     18       0.051271  -0.010616   0.044903  -0.009342   0.002500  -0.000001
     19       0.067348  -0.019913   0.341618   0.030671  -0.037586  -0.000008
     20      -0.000006  -0.000000  -0.000033  -0.000003   0.000003  -0.001608
     21       0.083854   0.002465   0.063639  -0.020380  -0.006058   0.000005
     22       0.116440   0.097749   0.209312  -0.086239  -0.013553   0.000018
     23       0.000004  -0.000000   0.000004   0.000001  -0.000000   0.000041
     24       0.233021   0.024836  -0.055738   0.084231  -0.012088  -0.000004
     25      -0.212449   0.066272   0.048444   0.004093   0.005773  -0.000001
     26       0.000000   0.000009  -0.000001   0.000010   0.000000  -0.000695
     27       0.141014  -0.629852   0.028399  -0.784203   0.061233   0.000064
     28      -0.150553   0.451244  -0.049986   0.583432  -0.031524  -0.000051
     29       0.000131  -0.000109   0.000029  -0.000112   0.000000   0.000430
                 24         25         26         27         28         29    
      0       0.004244   0.209636  -0.000069  -0.000000  -0.003963  -0.001184
      1       0.002547   0.223069   0.000454   0.000000  -0.000141   0.001542
      2      -0.000004  -0.000017   0.000000   0.000334   0.000000  -0.000001
      3      -0.026779  -0.252976   0.000603  -0.000000   0.001727  -0.003581
      4      -0.052377  -0.368693  -0.000389   0.000000   0.001427  -0.010074
      5      -0.000001  -0.000004  -0.000000   0.000625  -0.000000   0.000001
      6      -0.042255  -0.048895  -0.049625   0.000001  -0.048404   0.000655
      7      -0.038813   0.022559   0.014338   0.000002  -0.077631  -0.001052
      8      -0.000015  -0.000001  -0.000004   0.091422   0.000003   0.000000
      9       0.469989  -0.209275   0.362907   0.414001   0.145026  -0.001114
     10       0.246079  -0.110047   0.096067   0.109494   0.027334   0.001953
     11       0.398388  -0.143124  -0.531768  -0.558827  -0.217695   0.000273
     12       0.469933  -0.209245   0.363012  -0.414001   0.145054  -0.001116
     13       0.245770  -0.110124   0.096109  -0.109508   0.027349   0.001952
     14      -0.398402   0.143149   0.531802  -0.558703   0.217690  -0.000274
     15      -0.324559   0.397480  -0.136748  -0.000006   0.309342  -0.002794
     16       0.075774  -0.115057  -0.362054  -0.000016   0.870363   0.007658
     17       0.000231   0.000033   0.000011   0.020728  -0.000029  -0.000000
     18      -0.003573  -0.040562  -0.000034   0.000000   0.000591   0.002728
     19      -0.006161  -0.120623  -0.000372   0.000000  -0.000047  -0.000605
     20       0.000001   0.000013   0.000000  -0.000059  -0.000000   0.000000
     21       0.010300   0.072106  -0.000009  -0.000000  -0.000417   0.001980
     22       0.035235   0.207311  -0.000060  -0.000000  -0.000738   0.003070
     23       0.000000  -0.000001   0.000000  -0.000064   0.000000  -0.000000
     24       0.004635   0.069180  -0.000368   0.000000   0.000162  -0.035351
     25       0.001315   0.008873   0.000149   0.000000   0.000185  -0.048867
     26       0.000001   0.000005   0.000000  -0.000124   0.000000  -0.000004
     27      -0.023679  -0.478592   0.002299  -0.000002  -0.001359   0.540369
     28       0.006291   0.284872   0.002765  -0.000001  -0.005812   0.839134
     29      -0.000016  -0.000070  -0.000001  -0.000060   0.000000   0.000066


-----------
IR SPECTRUM
-----------

 Mode   freq       eps      Int      T**2         TX        TY        TZ
       cm**-1   L/(mol*cm) km/mol    a.u.
----------------------------------------------------------------------------
  6:    130.34   0.000333    1.68  0.000797  (-0.000018  0.000000  0.028227)
  7:    177.74   0.000938    4.74  0.001647  ( 0.000026 -0.000009 -0.040579)
  8:    251.90   0.007656   38.69  0.009484  (-0.097183  0.006323  0.000002)
  9:    371.99   0.004443   22.45  0.003728  ( 0.058934 -0.015947  0.000005)
 10:    411.43   0.002883   14.57  0.002187  ( 0.000015 -0.000027 -0.046764)
 11:    525.36   0.000588    2.97  0.000349  ( 0.017440  0.006707 -0.000007)
 12:    554.47   0.001943    9.82  0.001093  (-0.031279 -0.010720 -0.000035)
 13:    623.44   0.008368   42.29  0.004189  (-0.000026  0.000028  0.064720)
 14:    664.39   0.009183   46.41  0.004313  (-0.000018 -0.000005  0.065676)
 15:    766.03   0.002489   12.58  0.001014  (-0.005789  0.031310  0.000004)
 16:    980.26   0.000278    1.40  0.000088  (-0.002844  0.008962  0.000001)
 17:   1010.37   0.001008    5.09  0.000311  (-0.000006  0.000004  0.017641)
 18:   1094.40   0.030765  155.47  0.008773  (-0.084417  0.040575  0.000001)
 19:   1244.35   0.008005   40.46  0.002008  (-0.043200 -0.011891 -0.000004)
 20:   1331.80   0.064634  326.63  0.015145  ( 0.025201 -0.120457  0.000002)
 21:   1355.18   0.039211  198.16  0.009029  (-0.064373  0.069896 -0.000005)
 22:   1367.47   0.002823   14.27  0.000644  ( 0.025290  0.002153 -0.000003)
 23:   1429.64   0.001818    9.19  0.000397  ( 0.000010 -0.000007 -0.019919)
 24:   1451.79   0.001835    9.27  0.000394  ( 0.018731 -0.006598  0.000003)
 25:   1552.33   0.005626   28.43  0.001131  (-0.021300 -0.026027 -0.000001)
 26:   3009.40   0.000042    0.21  0.000004  ( 0.001744 -0.001152 -0.000000)
 27:   3073.32   0.000066    0.34  0.000007  ( 0.000001  0.000001  0.002596)
 28:   3142.26   0.000481    2.43  0.000048  ( 0.005085 -0.004679  0.000000)
 29:   3537.54   0.027313  138.03  0.002409  ( 0.036094  0.033265  0.000002)

* The epsilon (eps) is given for a Dirac delta lineshape.
** The dipole moment derivative (T) already includes vibrational overlap.

The first frequency considered to be a vibration is 6
The total number of vibrations considered is 24


--------------------------
THERMOCHEMISTRY AT 298.15K
--------------------------

Temperature         ...   298.15 K
Pressure            ...     1.00 atm
Total Mass          ...    88.06 AMU
Quasi RRHO          ...     True
Cut-Off Frequency   ...     1.00 cm^-1

Throughout the following assumptions are being made:
  (1) The electronic state is orbitally nondegenerate
  (2) There are no thermally accessible electronically excited states
  (3) Hindered rotations indicated by low frequency modes are not
      treated as such but are treated as vibrations and this may
      cause some error
  (4) All equations used are the standard statistical mechanics
      equations for an ideal gas
  (5) All vibrations are strictly harmonic

freq.     130.34  E(vib)   ...       0.43 
freq.     177.74  E(vib)   ...       0.37 
freq.     251.90  E(vib)   ...       0.30 
freq.     371.99  E(vib)   ...       0.21 
freq.     411.43  E(vib)   ...       0.19 
freq.     525.36  E(vib)   ...       0.13 
freq.     554.47  E(vib)   ...       0.12 
freq.     623.44  E(vib)   ...       0.09 
freq.     664.39  E(vib)   ...       0.08 
freq.     766.03  E(vib)   ...       0.06 
freq.     980.26  E(vib)   ...       0.02 
freq.    1010.37  E(vib)   ...       0.02 
freq.    1094.40  E(vib)   ...       0.02 
freq.    1244.35  E(vib)   ...       0.01 
freq.    1331.80  E(vib)   ...       0.01 
freq.    1355.18  E(vib)   ...       0.01 
freq.    1367.47  E(vib)   ...       0.01 
freq.    1429.64  E(vib)   ...       0.00 
freq.    1451.79  E(vib)   ...       0.00 
freq.    1552.33  E(vib)   ...       0.00 
freq.    3009.40  E(vib)   ...       0.00 
freq.    3073.32  E(vib)   ...       0.00 
freq.    3142.26  E(vib)   ...       0.00 
freq.    3537.54  E(vib)   ...       0.00 

------------
INNER ENERGY
------------

The inner energy is: U= E(el) + E(ZPE) + E(vib) + E(rot) + E(trans)
    E(el)   - is the total energy from the electronic structure calculation
              = E(kin-el) + E(nuc-el) + E(el-el) + E(nuc-nuc)
    E(ZPE)  - the the zero temperature vibrational energy from the frequency calculation
    E(vib)  - the the finite temperature correction to E(ZPE) due to population
              of excited vibrational states
    E(rot)  - is the rotational thermal energy
    E(trans)- is the translational thermal energy

Summary of contributions to the inner energy U:
Electronic energy                ...   -342.21574902 Eh
Zero point energy                ...      0.06847534 Eh      42.97 kcal/mol
Thermal vibrational correction   ...      0.00331007 Eh       2.08 kcal/mol
Thermal rotational correction    ...      0.00141627 Eh       0.89 kcal/mol
Thermal translational correction ...      0.00141627 Eh       0.89 kcal/mol
-----------------------------------------------------------------------
Total thermal energy                   -342.14113107 Eh


Summary of corrections to the electronic energy:
(perhaps to be used in another calculation)
Total thermal correction                  0.00614262 Eh       3.85 kcal/mol
Non-thermal (ZPE) correction              0.06847534 Eh      42.97 kcal/mol
-----------------------------------------------------------------------
Total correction                          0.07461796 Eh      46.82 kcal/mol


--------
ENTHALPY
--------

The enthalpy is H = U + kB*T
                kB is Boltzmann's constant
Total thermal energy              ...   -342.14113107 Eh 
Thermal Enthalpy correction       ...      0.00094421 Eh       0.59 kcal/mol
-----------------------------------------------------------------------
Total Enthalpy                    ...   -342.14018686 Eh


Note: Only C1 symmetry has been detected, increase convergence thresholds 
      if your molecule has a higher symmetry. Symmetry factor of 1.0 is   
      used for the rotational entropy correction. 
 

Note: Rotational entropy computed according to Herzberg 
Infrared and Raman Spectra, Chapter V,1, Van Nostrand Reinhold, 1945 
Point Group:  C1, Symmetry Number:   1  
Rotational constants in cm-1:     0.180281     0.119815     0.072965 

Vibrational entropy computed according to the QRRHO of S. Grimme
Chem.Eur.J. 2012 18 9955 using a reference frequency of 100.0 cm-1


-------
ENTROPY
-------

The entropy contributions are T*S = T*(S(el)+S(vib)+S(rot)+S(trans))
     S(el)   - electronic entropy
     S(vib)  - vibrational entropy
     S(rot)  - rotational entropy
     S(trans)- translational entropy
The entropies will be listed as multiplied by the temperature to get
units of energy

Electronic entropy                ...      0.00000000 Eh      0.00 kcal/mol
Vibrational entropy               ...      0.00543856 Eh      3.41 kcal/mol
Rotational entropy                ...      0.01255712 Eh      7.88 kcal/mol
Translational entropy             ...      0.01869119 Eh     11.73 kcal/mol
-----------------------------------------------------------------------
Final entropy term                ...      0.03668688 Eh     23.02 kcal/mol

In case the symmetry of your molecule has not been determined correctly
or in case you have a reason to use a different symmetry number we print 
out the resulting rotational entropy values for sn=1,12:

 non-linear molecules -----------------------------------
|  sn= 1 | S(rot)=       0.01255712 Eh      7.88 kcal/mol|
|  sn= 2 | S(rot)=       0.01190267 Eh      7.47 kcal/mol|
|  sn= 3 | S(rot)=       0.01151984 Eh      7.23 kcal/mol|
|  sn= 4 | S(rot)=       0.01124821 Eh      7.06 kcal/mol|
|  sn= 5 | S(rot)=       0.01103752 Eh      6.93 kcal/mol|
|  sn= 6 | S(rot)=       0.01086538 Eh      6.82 kcal/mol|
|  sn= 7 | S(rot)=       0.01071983 Eh      6.73 kcal/mol|
|  sn= 8 | S(rot)=       0.01059376 Eh      6.65 kcal/mol|
|  sn= 9 | S(rot)=       0.01048255 Eh      6.58 kcal/mol|
|  sn=10 | S(rot)=       0.01038307 Eh      6.52 kcal/mol|
|  sn=11 | S(rot)=       0.01029308 Eh      6.46 kcal/mol|
|  sn=12 | S(rot)=       0.01021092 Eh      6.41 kcal/mol|
 linear molecules ---------------------------------------
|  Dinfh | S(rot)=       0.00779746 Eh      4.89 kcal/mol|
|  Cinfv | S(rot)=       0.00845191 Eh      5.30 kcal/mol|
 --------------------------------------------------------


-------------------
GIBBS FREE ENERGY
-------------------

The Gibbs free energy is G = H - T*S

Total enthalpy                    ...   -342.14018686 Eh 
Total entropy correction          ...     -0.03668688 Eh    -23.02 kcal/mol
-----------------------------------------------------------------------
Final Gibbs free energy         ...   -342.17687374 Eh

For completeness - the Gibbs free energy minus the electronic energy
G-E(el)                           ...      0.03887529 Eh     24.39 kcal/mol



--------------------------------
SUGGESTED CITATIONS FOR THIS RUN
--------------------------------

Below you find a list of papers that are relevant to this ORCA run
We neither can nor want to force you to cite these papers, but we appreciate if you do
You receive ORCA, which is the product of decades of hard work by many enthusiastic individuals, for free
The only thing we kindly ask in return is that you cite our papers,
We deeply appreciate it, if you show your appreciation for ORCA by not just citing the generic ORCA reference.

Please note that relegating all ORCA citations to the supporting information does *not* help us.
SI sections are not indexed - citations you put there will not count into any citation statistics
But we need these citations in order to attract the funding resources that allow us to do what we are doing

Therefore, if you are a happy ORCA user, please consider citing a few of the papers listed below in the main body of your paper

In addition to the list printed below, the program has created the file s1_freq_0_wat.bibtex that contains the list in bibtex format
You can import this file easily into all common literature databanks and citation aid programs


List of essential papers. We consider these as the minimum necessary citations

  1. Neese, F.
     Software update: the ORCA program system, version 6.0
     WIRES Comput. Molec. Sci. 2025 15(1), e70019
     doi.org/10.1002/wcms.7019

List of papers to cite with high priority. The work reported in these papers was absolutely
necessary for this run to complete.
Our perspective: the developers of density functionals and basis sets usually get cited in chemistry papers
Good! But without the algorithms to do something with them, the functionals or basis sets would not do anything.
Hence, in our opinion, the algorithm design and method developments papers are equally worthy of getting cited

  1. Neese, F.; Olbrich, G.
     Efficient use of the resolution of the identity approximation in time-dependent density functional calculations with hybrid density functionals
     Chem. Phys. Lett. 2002 362 , 170-178
     doi.org/10.1016/s0009-2614(02)01053-9
  2. Petrenko, T.; Kossmann, S.; Neese, F.
     Efficient time-dependent density functional theory approximations for hybrid density functionals: Analytical gradients and parallelization
     J. Chem. Phys. 2011 134 , 054116
     doi.org/10.1063/1.3533441
  3. Lehtola, S.; Steigemann, C.; Oliveira, M.; Marques, M.
     Recent developments in Libxc - A comprehensive library of functionals for density functional theory
     Software X 2018 7 , 
     doi.org/10.1016/j.softx.2017.11.002
  4. Neese, F.
     The SHARK Integral Generation and Digestion System
     J. Comp. Chem. 2022 44(3), 381
     doi.org/10.1002/jcc.26942

List of suggested additional citations. These are papers that are important in the 'surrounding' of 
of this run, or papers that preceded the highly important papers. If you like your results we are grateful for a citation.

  1. Neese, F.
     The ORCA program system
     WIRES Comput. Molec. Sci. 2012 2(1), 73-78
     doi.org/10.1002/wcms.81
  2. Neese, F.
     Software update: the ORCA program system, version 4.0
     WIRES Comput. Molec. Sci. 2018 8(1), 1-6
     doi.org/10.1002/wcms.1327
  3. Neese, F.; Wennmohs, F.; Becker, U.; Riplinger, C.
     The ORCA quantum chemistry program package
     J. Chem. Phys. 2020 152(22), 224108
     doi.org/10.1063/5.0004608
  4. Neese, F.
     Software update: The ORCA program system—Version 5.0
     WIRES Comput. Molec. Sci. 2022 12(1), e1606
     doi.org/10.1002/wcms.1606

List of optional additional citations

  1. Neese, F.
     Approximate second-order SCF convergence for spin unrestricted wavefunctions
     Chem. Phys. Lett. 2000 325(1-3), 93-98
     doi.org/10.1016/s0009-2614(00)00662-x

Timings for individual modules:

Sum of individual times          ...    10472.403 sec (= 174.540 min)
Startup calculation              ...        6.400 sec (=   0.107 min)   0.1 %
SCF iterations                   ...       76.592 sec (=   1.277 min)   0.7 %
Property integrals               ...        1.450 sec (=   0.024 min)   0.0 %
Property calculations            ...        2.527 sec (=   0.042 min)   0.0 %
CIS module                       ...      385.450 sec (=   6.424 min)   3.7 %
Numerical frequency calculation  ...     9999.983 sec (= 166.666 min)  95.5 %
                             ****ORCA TERMINATED NORMALLY****
TOTAL RUN TIME: 0 days 2 hours 50 minutes 36 seconds 415 msec
