
                                 *****************
                                 * O   R   C   A *
                                 *****************

                                            #,                                       
                                            ###                                      
                                            ####                                     
                                            #####                                    
                                            ######                                   
                                           ########,                                 
                                     ,,################,,,,,                         
                               ,,#################################,,                 
                          ,,##########################################,,             
                       ,#########################################, ''#####,          
                    ,#############################################,,   '####,        
                  ,##################################################,,,,####,       
                ,###########''''           ''''###############################       
              ,#####''   ,,,,##########,,,,          '''####'''          '####       
            ,##' ,,,,###########################,,,                        '##       
           ' ,,###''''                  '''############,,,                           
         ,,##''                                '''############,,,,        ,,,,,,###''
      ,#''                                            '''#######################'''  
     '                                                          ''''####''''         
             ,#######,   #######,   ,#######,      ##                                
            ,#'     '#,  ##    ##  ,#'     '#,    #''#        ,####,    ,#,          
            ##       ##  ##   ,#'  ##            #'  '#       #'       ,# #          
            ##       ##  #######   ##           ,######,      #####,      #          
            '#,     ,#'  ##    ##  '#,     ,#' ,#      #,     #,   #      #          
             '#######'   ##     ##  '#######'  #'      '#     '####' #    #          



                #########################################################
                #                        -***-                          #
                #          Department of theory and spectroscopy        #
                #                                                       #
                #                      Frank Neese                      #
                #                                                       #
                #     Directorship, Architecture, Infrastructure        #
                #                    SHARK, DRIVERS                     #
                #        Core code/Algorithms in most modules           #
                #                                                       #
                #        Max Planck Institute fuer Kohlenforschung      #
                #                Kaiser Wilhelm Platz 1                 #
                #                 D-45470 Muelheim/Ruhr                 #
                #                      Germany                          #
                #                                                       #
                #                  All rights reserved                  #
                #                        -***-                          #
                #########################################################


                         Program Version 6.1.0  -  RELEASE   -
                                (GIT: $679e74b$)
                          ($2025-06-10 18:02:51 +0200$)


 With contributions from (in alphabetic order):
[Max-Planck-Institut fuer Kohlenforschung]                               
  Daniel Aravena         : Magnetic Suceptibility                        
  Michael Atanasov       : Ab Initio Ligand Field Theory (pilot matlab implementation)
  Alexander A. Auer      : GIAO ZORA, VPT2 properties, NMR spectrum      
  Ute Becker             : All parallelization in ORCA, NUMFREQ, NUMCALC 
  Giovanni Bistoni       : ED, misc. LED, open-shell LED, HFLD           
  Dmytro Bykov           : pre 5.0 version of the SCF Hessian            
  Marcos Casanova-Páez   : Triplet and SCS-CIS(D). UHF-(DLPNO)-IP/EA/STEOM-CCSD. UHF-CVS-IP/STEOM-CCSD   
  Vijay G. Chilkuri      : MRCI spin determinant printing, contributions to CSF-ICE 
  Pauline Colinet        : FMM embedding                                 
  Dipayan Datta          : RHF DLPNO-CCSD density                        
  Achintya Kumar Dutta   : EOM-CC, STEOM-CC                              
  Nicolas Foglia         : Exact transition moments, OPA infrastructure, MCD improvements    
  Dmitry Ganyushin       : Spin-Orbit,Spin-Spin,Magnetic field MRCI      
  Miquel Garcia-Rates    : C-PCM and meta-GGA Hessian, CCSD/C-PCM, Gaussian charge scheme 
  Tiago L. C. Gouveia    : GS-ROHF, GS-ROCIS                             
  Yang Guo               : DLPNO-NEVPT2, F12-NEVPT2, CIM, IAO-localization        
  Andreas Hansen         : Spin unrestricted coupled pair/coupled cluster methods 
  Ingolf Harden          : AUTO-CI MPn and infrastructure                
  Benjamin Helmich-Paris : MC-RPA, TRAH-(SCF,CASSCF), AVAS, COSX integrals, SCF dyn. polar., MC-PDFT, srDFT 
  Lee Huntington         : MR-EOM, pCC                                   
  Robert Izsak           : Overlap fitted RIJCOSX, COSX-SCS-MP3, EOM     
  Riya Kayal             : Wick's Theorem for AUTO-CI, AUTO-CI UHF-CCSDT 
  Emily Kempfer          : AUTO-CI RHF CISDT and CCSDT, approximate NEVPT4
  Christian Kollmar      : KDIIS, OOCD, Brueckner-CCSD(T), CCSD density, CASPT2, CASPT2-K, improved NEVPT2 
  Axel Koslowski         : Symmetry handling                             
  Simone Kossmann        : meta-GGA functionals, TD-DFT gradient, OOMP2, (MP2 Hessian; deprecated post 5.0) 
  Lucas Lang             : DCDCAS, Hyperfine gauge corrections, ICE-SOC+SSC
  Marvin Lechner         : AUTO-CI (C++ implementation), FIC-MRCC        
  Spencer Leger          : CASSCF response                               
  Dagmar Lenk            : GEPOL surface, SMD, ORCA-2-JSON               
  Dimitrios Liakos       : Extrapolation schemes; Compound Job, Property file
  Dimitrios Manganas     : Further ROCIS development; embedding schemes. LFT, Crystal Embedding 
  Dimitrios Pantazis     : SARC Basis sets                               
  Anastasios Papadopoulos: AUTO-CI, single reference methods and gradients 
  Taras Petrenko         : pre 6.0 DFT Hessian and TD-DFT gradient,  ECA, NRVS 
  Petra Pikulova         : Analytic Raman intensities                    
  Peter Pinski           : DLPNO-MP2, DLPNO-MP2 Gradient                 
  Shashank Vittal Rao    : ES-AILFT, MagRelax                            
  Christoph Reimann      : Effective Core Potentials                     
  Marius Retegan         : Local ZFS, SOC                                
  Christoph Riplinger    : Optimizer, TS searches, QM/MM, DLPNO-CCSD(T), (RO)-DLPNO pert. Triples 
  Michael Roemelt        : Original ROCIS implementation, recursive CI coupling coefficients
  Masaaki Saitow         : Open-shell DLPNO-CCSD energy and density      
  Barbara Sandhoefer     : DKH picture change effects                    
  Yorick L. A. Schmerwitz: GMF and freeze-and-release deltaSCF, NEB S-IDPP initial path                    
  Kantharuban Sivalingam : CASSCF convergence/infrastructure, NEVPT2, NEVPT3, NEVPT4(SD), FIC-MRCI and CEPA variants
  Bernardo de Souza      : ESD, SOC TD-DFT                               
  Georgi L. Stoychev     : AutoAux, RI-MP2 NMR, DLPNO-MP2 response, X2C  
  Van Anh Tran           : RI-MP2 g-tensors                              
  Willem Van den Heuvel  : Paramagnetic NMR                              
  Zikuan Wang            : NOTCH, Electric field optimization            
  Frank Wennmohs         : Technical directorship and infrastructure     
  Hang Xu                : AUTO-CI-Response properties                   
                                                                         
[FACCTs GmbH]                                                            
  Markus Bursch, Nicolas Foglia, Miquel Garcia-Rates, Ingolf Harden, Hagen Neugebauer, Anastasios Papadopoulos, 
  Christoph Riplinger, Bernardo de Souza, Georgi L. Stoychev                                                    
                                                                 
  APM, various basis sets, CI-OPT, improved COSX, DLPNO-Multilevel,           
  DOCKER, DRACO, updates on ESD, Fragmentator, GOAT, IRC, LR-CPCM, L-BFGS, MBIS, meta-GGA TD-DFT gradient, ML-optimized integration grids, 
  MM, NACMEs, nearIR, NEB, NEB-TS, NL-DFT gradient (VV10), 2- and 3-layer-ONIOM, interface openCOSMO-RS, QMMM,   
  Crystal-QMMM, RESP, rigid body optimization, SF, symmetry and pop. for TD-DFT, various functionals, SOLVATOR                                   
                                                                         
[Other institutions]                                                     
  V. Asgeirsson          : NEB                                           
  Christoph Bannwarth    : sTDA-DFT, sTD-DFT, PBEh-3c, B97-3c, D3        
  Giovanni Bistoni       : ETS/NOCV, ADLD/ADEX, COVALED                  
  Martin Brehm           : Molecular dynamics                            
  Ronald Cardenas        : ETS/NOCV                                      
  Martina Colucci        : COVALED                                       
  Sebastian Ehlert       : rSCAN, r2SCAN, r2SCAN-3c, D4, dhf basis sets  
  Marvin Friede          : D4 for Fr, Ra, Ac-Lr                          
  Lars Goerigk           : TD-DFT with DH, B97 family of functionals     
  Stefan Grimme          : VdW corrections, initial TS optimization, DFT functionals, gCP, sTDA/sTD-DF 
  Waldemar Hujo          : DFT-NL                                        
  H. Jonsson             : NEB                                           
  Holger Kruse           : gCP                                           
  Marcel Mueller         : wB97X-3c, vDZP basis set                      
  Hagen Neugebauer       : wr2SCAN, Native XTB                           
  Gianluca Regni         : ADLD/ADEX                                     
  Tobias Risthaus        : pre 6.0 range-separated hybrid DFT and stability analysis
  Lukas Wittmann         : regularized MP2, r2SCAN double-hybrids, wr2SCAN        
                                                                         
We gratefully acknowledge several colleagues who have allowed us to      
interface, adapt or use parts of their codes:                            
  Ed Valeev, F. Pavosevic, A. Kumar             : LibInt (2-el integral package), F12 methods 
  Garnet Chan, S. Sharma, J. Yang, R. Olivares  : DMRG                   
  Ulf Ekstrom                                   : XCFun DFT Library      
  Mihaly Kallay                                 : mrcc  (arbitrary order and MRCC methods)
  Frank Weinhold                                : gennbo (NPA and NBO analysis)           
  Simon Mueller                                 : openCOSMO-RS                            
  Christopher J. Cramer and Donald G. Truhlar   : smd solvation model                     
  S Lehtola, MJT Oliveira, MAL Marques          : LibXC Library                           
  Liviu Ungur et al                             : ANISO software                          


 Your calculation uses the libint2 library for the computation of 2-el integrals
 For citations please refer to: http://libint.valeyev.net

 Your ORCA version has been built with support for libXC version: 7.0.0
 For citations please refer to: https://libxc.gitlab.io

 This ORCA versions uses:
   CBLAS   interface :  Fast vector & matrix operations
   LAPACKE interface :  Fast linear algebra routines
   SCALAPACK package :  Parallel linear algebra routines
   Shared memory     :  Shared parallel matrices
   BLAS/LAPACK       :  OpenBLAS 0.3.29  USE64BITINT DYNAMIC_ARCH NO_AFFINITY SkylakeX SINGLE_THREADED
        Core in use  :  SkylakeX
   Copyright (c) 2011-2014, The OpenBLAS Project


  ***********************************
  * Starting time: Wed Jan 28 12:00:48 2026
  * Host name:     bp1-compute031.data.bp.acrc.priv
  * Process ID:    2033897
  * Working dir.:  /user/work/kp22738/Diss/Orca/pyruvic_anion/dyson_orbitals/0_wat/15365183_t1_freq_0_wat
  ***********************************

NOTE: MaxCore=8000 MB was set to SCF,MP2,MDCI,CIPSI,MRCI,RASCI and CIS
      => If you want to overwrite this, your respective input block should be placed after the MaxCore statement
Using LibXC functional ID 471 : wB97X-D range-separated functional
[ 1]  J.-D. Chai and M. Head-Gordon.,  Phys. Chem. Chem. Phys. 10, 6615-6620 (2008)
Using LibXC functional ID 471 : wB97X-D range-separated functional
[ 1]  J.-D. Chai and M. Head-Gordon.,  Phys. Chem. Chem. Phys. 10, 6615-6620 (2008)
Your calculation utilizes LibXC
by S. Lehtola, C. Steigemann, M. J. T. Oliveira & M. A. L. Marques
Please cite in your paper:
Lehtola, S.; Steigemann, C.; Oliveira, M.J.T.; Marques, M. A. L. Software X, 7, (2018), 1.
   

================================================================================

----- Orbital basis set information -----
Your calculation utilizes the basis: aug-cc-pVDZ 
    H, B-Ne : Obtained from the ccRepo (grant-hill.group.shef.ac.uk/ccrepo) Feb. 2017
              R. A. Kendall, T. H. Dunning, Jr., R. J. Harrison, J. Chem. Phys. 96, 6796 (1992)
         He : Obtained from the ccRepo (grant-hill.group.shef.ac.uk/ccrepo) Feb. 2017
              D. E. Woon, T. H. Dunning, Jr., J. Chem. Phys. 100, 2975 (1994)
  Li-Be, Na : Obtained from the ccRepo (grant-hill.group.shef.ac.uk/ccrepo) Feb. 2017
              B. P. Prascher, D. E. Woon, K. A. Peterson, T. H. Dunning, Jr., A. K. Wilson, Theor. Chem. Acc. 128, 69 (2011)
         Mg : Obtained from the Peterson Research Group Website (tyr0.chem.wsu.edu/~kipeters) Feb. 2017
              B. P. Prascher, D. E. Woon, K. A. Peterson, T. H. Dunning, Jr., A. K. Wilson, Theor. Chem. Acc. 128, 69 (2011)
      Al-Ar : Obtained from the ccRepo (grant-hill.group.shef.ac.uk/ccrepo) Feb. 2017
              D. E. Woon, T. H. Dunning, Jr., J. Chem. Phys. 98, 1358 (1993)
      Sc-Zn : Obtained from the ccRepo (grant-hill.group.shef.ac.uk/ccrepo) Feb. 2017
              N. B. Balabanov, K. A. Peterson, J. Chem. Phys. 123, 064107 (2005)
              N. B. Balabanov, K. A. Peterson, J. Chem. Phys. 125, 074110 (2006)
      Ga-Kr : Obtained from the ccRepo (grant-hill.group.shef.ac.uk/ccrepo) Feb. 2017
              A. K. Wilson, D. E. Woon, K. A. Peterson, T. H. Dunning, Jr., J. Chem. Phys. 110, 7667 (1999)

================================================================================
                                        WARNINGS
                       Please study these warnings very carefully!
================================================================================


WARNING: your system is open-shell and RHF/RKS was chosen
  ===> : WILL SWITCH to UHF/UKS


================================================================================
                                       INPUT FILE
================================================================================
NAME = t1_freq_0_wat.inp
|  1> ! aug-cc-pVDZ TightSCF DEFGRID3 Engrad ANFREQ
|  2> 
|  3> %PAL NPROCS 8 END
|  4> 
|  5> %maxcore 8000
|  6> 
|  7> %method
|  8> method dft
|  9> functional hyb_gga_xc_wb97x_d
| 10> end
| 11> 
| 12> * xyz 0 3
| 13>   C     -0.632075   -0.215377   -0.000041
| 14>   C      0.724963    0.275601   -0.000006
| 15>   C     -1.782459    0.756586   -0.000045
| 16>   H     -2.421252    0.599441    0.886501
| 17>   H     -2.421344    0.599396   -0.886518
| 18>   H     -1.415701    1.790817   -0.000074
| 19>   O     -0.837573   -1.488634    0.000082
| 20>   O      1.122316    1.451584   -0.000009
| 21>   O      1.635045   -0.757426    0.000019
| 22>   H      1.036465   -1.534650   -0.000046
| 23> * 
| 24> 
| 25>                          ****END OF INPUT****
================================================================================

                     *******************************
                     * Energy+Gradient Calculation *
                     *******************************

---------------------------------
CARTESIAN COORDINATES (ANGSTROEM)
---------------------------------
  C     -0.632075   -0.215377   -0.000041
  C      0.724963    0.275601   -0.000006
  C     -1.782459    0.756586   -0.000045
  H     -2.421252    0.599441    0.886501
  H     -2.421344    0.599396   -0.886518
  H     -1.415701    1.790817   -0.000074
  O     -0.837573   -1.488634    0.000082
  O      1.122316    1.451584   -0.000009
  O      1.635045   -0.757426    0.000019
  H      1.036465   -1.534650   -0.000046

----------------------------
CARTESIAN COORDINATES (A.U.)
----------------------------
  NO LB      ZA    FRAG     MASS         X           Y           Z
   0 C     6.0000    0    12.011   -1.194449   -0.407004   -0.000077
   1 C     6.0000    0    12.011    1.369982    0.520810   -0.000011
   2 C     6.0000    0    12.011   -3.368359    1.429740   -0.000085
   3 H     1.0000    0     1.008   -4.575503    1.132779    1.675244
   4 H     1.0000    0     1.008   -4.575677    1.132694   -1.675276
   5 H     1.0000    0     1.008   -2.675287    3.384154   -0.000140
   6 O     8.0000    0    15.999   -1.582784   -2.813111    0.000155
   7 O     8.0000    0    15.999    2.120870    2.743096   -0.000017
   8 O     8.0000    0    15.999    3.089787   -1.431328    0.000036
   9 H     1.0000    0     1.008    1.958635   -2.900068   -0.000087

--------------------------------
INTERNAL COORDINATES (ANGSTROEM)
--------------------------------
 C      0   0   0     0.000000000000     0.00000000     0.00000000
 C      1   0   0     1.443125611703     0.00000000     0.00000000
 C      1   2   0     1.506019727906   119.91524408     0.00000000
 H      3   1   2     1.103954191980   110.49514023   239.01990719
 H      3   1   2     1.103955216055   110.49766591   120.98971818
 H      3   1   2     1.097335496904   110.66909508     0.00000000
 O      1   2   3     1.289733627995   119.05840778   180.00764715
 O      2   1   3     1.241299892414   128.55978680     0.00000000
 O      2   1   3     1.376733100524   111.48940417   179.99880495
 H      9   2   1     0.981007220565   101.01870071     0.00000000

---------------------------
INTERNAL COORDINATES (A.U.)
---------------------------
 C      0   0   0     0.000000000000     0.00000000     0.00000000
 C      1   0   0     2.727112182966     0.00000000     0.00000000
 C      1   2   0     2.845964838024   119.91524408     0.00000000
 H      3   1   2     2.086171087236   110.49514023   239.01990719
 H      3   1   2     2.086173022457   110.49766591   120.98971818
 H      3   1   2     2.073663566179   110.66909508     0.00000000
 O      1   2   3     2.437243342620   119.05840778   180.00764715
 O      2   1   3     2.345716846728   128.55978680     0.00000000
 O      2   1   3     2.601648519494   111.48940417   179.99880495
 H      9   2   1     1.853834982267   101.01870071     0.00000000

---------------------
BASIS SET INFORMATION
---------------------
There are 3 groups of distinct atoms

 Group   1 Type C   : 18s5p2d contracted to 4s3p2d pattern {8811/311/11}
 Group   2 Type H   : 5s2p contracted to 3s2p pattern {311/11}
 Group   3 Type O   : 18s5p2d contracted to 4s3p2d pattern {8811/311/11}

Atom   0C    basis set group =>   1
Atom   1C    basis set group =>   1
Atom   2C    basis set group =>   1
Atom   3H    basis set group =>   2
Atom   4H    basis set group =>   2
Atom   5H    basis set group =>   2
Atom   6O    basis set group =>   3
Atom   7O    basis set group =>   3
Atom   8O    basis set group =>   3
Atom   9H    basis set group =>   2


           ************************************************************
           *        Program running with 8 parallel MPI-processes     *
           *              working on a common directory               *
           ************************************************************
------------------------------------------------------------------------------
                             ORCA STARTUP CALCULATIONS
------------------------------------------------------------------------------
------------------------------------------------------------------------------
                   ___                                                        
                  /   \      - P O W E R E D   B Y -                         
                 /     \                                                     
                 |  |  |   _    _      __       _____    __    __             
                 |  |  |  | |  | |    /  \     |  _  \  |  |  /  |          
                  \  \/   | |  | |   /    \    | | | |  |  | /  /          
                 / \  \   | |__| |  /  /\  \   | |_| |  |  |/  /          
                |  |  |   |  __  | /  /__\  \  |    /   |      \           
                |  |  |   | |  | | |   __   |  |    \   |  |\   \          
                \     /   | |  | | |  |  |  |  | |\  \  |  | \   \       
                 \___/    |_|  |_| |__|  |__|  |_| \__\ |__|  \__/        
                                                                              
                      - O R C A' S   B I G   F R I E N D -                    
                                      &                                       
                       - I N T E G R A L  F E E D E R -                       
                                                                              
 v1 FN, 2020, v2 2021, v3 2022-2024                                           
------------------------------------------------------------------------------


----------------------
SHARK INTEGRAL PACKAGE
----------------------

Number of atoms                             ...     10
Number of basis functions                   ...    210
Number of shells                            ...    110
Maximum angular momentum                    ...      2
Integral batch strategy                     ... SHARK/LIBINT Hybrid
RI-J (if used) integral strategy            ... SPLIT-RIJ (Revised 2003 algorithm where possible)
Printlevel                                  ...      1
Contraction scheme used                     ... PARTIAL GENERAL contraction
Prescreening option                         ... SCHWARTZ
   Thresh                                   ... 2.500e-11
   Tcut                                     ... 2.500e-12
   Tpresel                                  ... 2.500e-12 
Coulomb Range Separation                    ... NOT USED
Exchange Range Separation                   ... Long Range
   Mu parameter                             ... 2.000e-01
   Scaling (regular/separated)              ... 2.220e-01 7.780e-01
Robust (split-)RI terms used:
  metric    (central integrals)             ... YES
  density   (r.h.s.  integrals)             ... YES
  potential (l.h.s.  integrals)             ... YES
Multipole approximations                    ... NOT USED
Finite Nucleus Model                        ... NOT USED
CABS basis                                  ... NOT available
Auxiliary Coulomb fitting basis             ... NOT available
Auxiliary J/K fitting basis                 ... NOT available
Auxiliary Correlation fitting basis         ... NOT available
Auxiliary 'external' fitting basis          ... NOT available

Checking pre-screening integrals            ... done (  0.0 sec) Dimension = 110
Save PGC pre-screening integrals            ... done (  0.0 sec) Dimension = 110
Calculate PGC overlap integrals             ... done (  0.0 sec) Dimension = 74
Calculating pre-screening integrals (ORCA)  ... done (  0.1 sec) Dimension = 74
Shell pair information
Shell pair cut-off parameter TPreSel        ...   2.5e-12
Total number of shell pairs                 ...      6105
Shell pairs after pre-screening             ...      5248
Total number of primitive shell pairs       ...      8545
Primitive shell pairs kept                  ...      6882
          la=0 lb=0:   1891 shell pairs
          la=1 lb=0:   1785 shell pairs
          la=1 lb=1:    351 shell pairs
          la=2 lb=0:    831 shell pairs
          la=2 lb=1:    312 shell pairs
          la=2 lb=2:     78 shell pairs

Checking whether 4 symmetric matrices of dimension 210 fit in memory
:Max Core in MB      =   8000.00
 MB in use           =      6.96
 MB left             =   7993.04
 MB needed           =      0.68
 Data fit in memory  = YES
Calculating Nuclear repulsion               ... done (  0.0 sec) ENN=    228.280983742235 Eh

Diagonalization of the overlap matrix:
Smallest eigenvalue                        ... 4.185e-05
Time for diagonalization                   ...    0.006 sec
Threshold for overlap eigenvalues          ... 1.000e-07
Number of eigenvalues below threshold      ... 0
Time for construction of square roots      ...    0.002 sec
Total time needed                          ...    0.010 sec

-------------------
DFT GRID GENERATION
-------------------

General Integration Accuracy     IntAcc      ... 4.959
Radial Grid Type                 RadialGrid  ... OptM3 with GC (2021)
Angular Grid (max. ang.)         AngularGrid ... 6 (Lebedev-590)
Angular grid pruning method      GridPruning ... 4 (adaptive)
Weight generation scheme         WeightScheme... mBecke (2022)
Basis function cutoff            BFCut       ... 1.0000e-11
Integration weight cutoff        WCut        ... 1.0000e-14
Partially contracted basis set               ... off
Rotationally invariant grid construction     ... off
Angular grids for H and He will be reduced by one unit
Diffuse basis detected: some atoms will have their outermost
                        angular grid increased by 1.

Total number of grid points                  ...   128396
Total number of batches                      ...     2011
Average number of points per batch           ...       63
Average number of grid points per atom       ...    12840

---------------------
SHARK GRID GENERATION
---------------------

General Integration Accuracy     IntAcc      ... 4.959
Radial Grid Type                 RadialGrid  ... OptM3 with GC (2021)
Angular Grid (max. ang.)         AngularGrid ... 6 (Lebedev-590)
Angular grid pruning method      GridPruning ... 4 (adaptive)
Weight generation scheme         WeightScheme... mBecke (2022)
Basis function cutoff            BFCut       ... 1.0000e-11
Integration weight cutoff        WCut        ... 1.0000e-14
Partially contracted basis set               ... off
Rotationally invariant grid construction     ... off
Angular grids for H and He will be reduced by one unit
Diffuse basis detected: some atoms will have their outermost
                        angular grid increased by 1.
Steep s-basis detected: some atoms will have their radial
                        grid points doubled.

Total number of grid points                  ...   217811
Total number of batches                      ...     3407
Average number of points per batch           ...       63
Average number of grid points per atom       ...    21781
Grids setup in   8.2 sec
Initializing property integral containers    ... done (  0.0 sec)

SHARK setup successfully completed in   9.0 seconds

Maximum memory used throughout the entire STARTUP-calculation: 51.8 MB


           ************************************************************
           *        Program running with 8 parallel MPI-processes     *
           *              working on a common directory               *
           ************************************************************
-------------------------------------------------------------------------------
                                 ORCA GUESS
                   Start orbitals & Density for SCF / CASSCF
-------------------------------------------------------------------------------

------------
SCF SETTINGS
------------
Hamiltonian:
 Density Functional     Method          .... DFT(GTOs)
  Functional kind                       .... Exchange-Correlation
  Functional name                       .... wB97X-D range-separated functional
  Functional family                     .... Hybrid GGA
  Functional refs                              
    [ 0] J.-D. Chai and M. Head-Gordon.,  Phys. Chem. Chem. Phys. 10, 6615-6620 (2008), doi: 10.1039/B810189B
  Fraction of HF Exchange (short range) .... 0.2220
  Fraction of HF Exchange ( int64 range )  .... 1.0000
  Range separation parameter mu         .... 0.2000
  Functional external parameters        .... 18
    Parameter  0 _cx0       =  7.779640e-01 : u^0 coefficient for exchange
    Parameter  1 _cx1       =  6.611600e-01 : u^1 coefficient for exchange
    Parameter  2 _cx2       =  5.745410e-01 : u^2 coefficient for exchange
    Parameter  3 _cx3       = -5.256710e+00 : u^3 coefficient for exchange
    Parameter  4 _cx4       =  1.163860e+01 : u^4 coefficient for exchange
    Parameter  5 _css0      =  1.000000e+00 : u^0 coefficient for same-spin correlation
    Parameter  6 _css1      = -6.905390e+00 : u^1 coefficient for same-spin correlation
    Parameter  7 _css2      =  3.133430e+01 : u^2 coefficient for same-spin correlation
    Parameter  8 _css3      = -5.105330e+01 : u^3 coefficient for same-spin correlation
    Parameter  9 _css4      =  2.644230e+01 : u^4 coefficient for same-spin correlation
    Parameter 10 _cos0      =  1.000000e+00 : u^0 coefficient for opposite-spin correlation
    Parameter 11 _cos1      =  1.794130e+00 : u^1 coefficient for opposite-spin correlation
    Parameter 12 _cos2      = -1.204770e+01 : u^2 coefficient for opposite-spin correlation
    Parameter 13 _cos3      =  1.408470e+01 : u^3 coefficient for opposite-spin correlation
    Parameter 14 _cos4      = -8.508090e+00 : u^4 coefficient for opposite-spin correlation
    Parameter 15 _alpha     =  1.000000e+00 : fraction of HF exchange
    Parameter 16 _beta      = -7.779640e-01 : fraction of short-range exchange
    Parameter 17 _omega     =  2.000000e-01 : range-separation constant
 Long-range corrected/Screened/Range-Separated Hybrid DFT is turned on
   Amount of maximum screened exact exchange              ....  0.777964
   Range separation parameter mu (erf(mu*r12)/r12)        ....  0.200000


General Settings:
 Integral files         IntName         .... t1_freq_0_wat
 Hartree-Fock type      HFTyp           .... UHF
 Total Charge           Charge          ....    0
 Multiplicity           Mult            ....    3
 Number of Electrons    NEL             ....   46
 Basis Dimension        Dim             ....  174
 Nuclear Repulsion      ENuc            ....    228.2809837422 Eh

Convergence Acceleration:
 AO-DIIS                CNVDIIS         .... on
   Start iteration      DIISMaxIt       ....    12
   Startup error        DIISStart       ....  0.200000
   # of expansion vecs  DIISMaxEq       ....     5
   Bias factor          DIISBfac        ....   1.050
   Max. coefficient     DIISMaxC        ....  10.000
 MO-DIIS                CNVKDIIS        .... off
 Trust-Rad. Augm. Hess. CNVTRAH         .... auto
   Auto Start mean grad. ratio tolernc. ....  1.125000
   Auto Start start iteration           ....    50
   Auto Start num. interpolation iter.  ....    10
   Max. Number of Micro iterations      ....    24
   Max. Number of Macro iterations      .... Maxiter - #DIIS iter
   Number of Davidson start vectors     ....     2
   Converg. threshold    (grad. norm)   ....   1.000e-05
   Grad. Scal. Fac. for Micro threshold ....   0.100
   Minimum threshold for Micro iter.    ....   1.000e-02
   NR start threshold (gradient norm)   ....   1.000e-04
   Initial trust radius                 ....   0.400
   Minimum AH scaling param. (alpha)    ....   1.000
   Maximum AH scaling param. (alpha)    .... 1000.000
   Quad. conv. algorithm                .... NR
   White noise on init. David. guess    .... on
   Maximum white noise                  ....   0.010
   Pseudo random numbers                .... off
   Inactive MOs                         .... canonical
   Orbital update algorithm             .... Taylor
   Preconditioner                       .... Diag
   Full preconditioner red. dimension   ....   250
 SOSCF                 CNVSOSCF           .... on
   Start iteration     SOSCFMaxIt         ....   150
   Startup grad/error  SOSCFStart         ....  0.003300
   Hessian update      SOSCFHessUp        .... L-BFGS
   Autom. constraints  SOSCFAutoConstrain .... off
 Level Shifting         CNVShift        .... on
   Level shift para.    LevelShift      ....    0.2500
   Turn off err/grad.   ShiftErr        ....    0.0010
 Zerner damping         CNVZerner       .... off
 Static damping         CNVDamp         .... on
   Fraction old density DampFac         ....    0.7000
   Max. Damping (<1)    DampMax         ....    0.9800
   Min. Damping (>=0)   DampMin         ....    0.0000
   Turn off err/grad.   DampErr         ....    0.1000

SCF Procedure:
 Maximum # iterations   MaxIter         ....   125
 SCF integral mode      SCFMode         .... Direct
   Integral package                     .... SHARK and LIBINT hybrid scheme
 Reset frequency        DirectResetFreq ....    20
 Integral Threshold     Thresh          ....  2.500e-11 Eh
 Primitive CutOff       TCut            ....  2.500e-12 Eh

Convergence Tolerance:
 Convergence Check Mode ConvCheckMode   .... Total+1el-Energy
 Convergence forced     ConvForced      .... 0
 Energy Change          TolE            ....  1.000e-08 Eh
 1-El. energy change                    ....  1.000e-05 Eh
 Orbital Gradient       TolG            ....  1.000e-05
 Orbital Rotation angle TolX            ....  1.000e-05
 DIIS Error             TolErr          ....  5.000e-07

------------------------------
INITIAL GUESS: MODEL POTENTIAL
------------------------------
Loading Hartree-Fock densities                     ... done
Calculating cut-offs                               ... done
Initializing the effective Hamiltonian             ... done
Setting up the integral package (SHARK)            ... done
Starting the Coulomb interaction                   ... done (   0.1 sec)
Making the grid                                    ... done (   0.2 sec)
Mapping shells                                     ... done
Starting the XC term evaluation                    ... done (   0.1 sec)
  promolecular density results
     # of electrons  =     45.997777632
     EX+EC           =    -29.730021498
Transforming the Hamiltonian                       ... done (   0.0 sec)
Diagonalizing the Hamiltonian                      ... done (   0.0 sec)
Back transforming the eigenvectors                 ... done (   0.0 sec)
Now organizing SCF variables                       ... done
                      ------------------
                      INITIAL GUESS DONE (   0.5 sec)
                      ------------------
             **** ENERGY FILE WAS UPDATED (t1_freq_0_wat.en.tmp) ****
Finished Guess after   1.0 sec
Maximum memory used throughout the entire GUESS-calculation: 9.9 MB


           ************************************************************
           *        Program running with 8 parallel MPI-processes     *
           *              working on a common directory               *
           ************************************************************

-------------------------------------------------------------------------------------------
                                      ORCA LEAN-SCF
                              memory conserving SCF solver
-------------------------------------------------------------------------------------------

----------------------------------------D-I-I-S--------------------------------------------
Iteration    Energy (Eh)           Delta-E    RMSDP     MaxDP     DIISErr   Damp  Time(sec)
-------------------------------------------------------------------------------------------
               ***  Starting incremental Fock matrix formation  ***
    1    -342.1316609458427820     0.00e+00  4.30e-03  5.75e-02  9.54e-02  0.700   4.3
    2    -342.1701587779701867    -3.85e-02  3.41e-03  4.42e-02  4.89e-02  0.700   4.1
                               ***Turning on AO-DIIS***
    3    -342.1899881476064138    -1.98e-02  2.30e-03  2.24e-02  2.50e-02  0.700   3.8
    4    -342.2024649625875554    -1.25e-02  5.62e-03  5.35e-02  1.81e-02  0.000   3.8
    5    -342.2313370922861395    -2.89e-02  7.81e-04  8.53e-03  5.97e-03  0.000   4.0
                              *** Initializing SOSCF ***
---------------------------------------S-O-S-C-F--------------------------------------
Iteration    Energy (Eh)           Delta-E    RMSDP     MaxDP     MaxGrad    Time(sec)
--------------------------------------------------------------------------------------
    6    -342.2317112404875843    -3.74e-04  4.19e-04  5.15e-03  3.27e-03     3.7
               *** Restarting incremental Fock matrix formation ***
    7    -342.2318619612642578    -1.51e-04  3.64e-04  4.71e-03  1.88e-03     4.0
    8    -342.2319717768114060    -1.10e-04  1.26e-03  1.84e-02  3.41e-03     3.6
    9    -342.2321491998089869    -1.77e-04  4.71e-04  5.87e-03  2.02e-03     4.1
   10    -342.2322450112084198    -9.58e-05  9.03e-04  1.19e-02  1.84e-03     3.9
   11    -342.2323333568577937    -8.83e-05  3.28e-04  5.88e-03  2.02e-03     3.8
   12    -342.2323729010379338    -3.95e-05  2.17e-04  2.89e-03  8.53e-04     3.7
   13    -342.2323816622246113    -8.76e-06  7.36e-05  1.10e-03  3.19e-04     3.7
   14    -342.2323833830437252    -1.72e-06  2.37e-05  2.60e-04  2.07e-04     3.6
   15    -342.2323839459356805    -5.63e-07  1.38e-05  1.61e-04  7.14e-05     3.5
   16    -342.2323840578859517    -1.12e-07  6.11e-06  8.30e-05  2.61e-05     3.4
   17    -342.2323840736261218    -1.57e-08  5.03e-06  6.21e-05  1.16e-05     3.2
   18    -342.2323840783063815    -4.68e-09  5.69e-06  6.28e-05  5.26e-06     3.2
                 **** Energy Check signals convergence ****

               *****************************************************
               *                     SUCCESS                       *
               *           SCF CONVERGED AFTER  18 CYCLES          *
               *****************************************************

             **** ENERGY FILE WAS UPDATED (t1_freq_0_wat.en.tmp) ****

----------------
TOTAL SCF ENERGY
----------------

Total Energy       :       -342.23238407899373 Eh           -9312.61662 eV

Components:
Nuclear Repulsion  :        228.28098374223524 Eh            6211.84137 eV
Electronic Energy  :       -570.51336782122894 Eh          -15524.45799 eV
One Electron Energy:       -918.87802123560300 Eh          -25003.94213 eV
Two Electron Energy:        348.36465341437406 Eh            9479.48415 eV

Virial components:
Potential Energy   :       -682.32901696696831 Eh          -18567.11649 eV
Kinetic Energy     :        340.09663288797458 Eh            9254.49987 eV
Virial Ratio       :          2.00627983633029

DFT components:
N(Alpha)           :       24.000011367010 electrons
N(Beta)            :       22.000021490601 electrons
N(Total)           :       46.000032857612 electrons
E(XC)              :      -30.183902690935 Eh       

---------------
SCF CONVERGENCE
---------------

  Last Energy change         ...    4.6803e-09  Tolerance :   1.0000e-08
  Last MAX-Density change    ...    6.2772e-05  Tolerance :   1.0000e-07
  Last RMS-Density change    ...    5.6927e-06  Tolerance :   5.0000e-09
  Last DIIS Error            ...    3.2666e-03  Tolerance :   5.0000e-07
  Last Orbital Gradient      ...    5.2631e-06  Tolerance :   1.0000e-05
  Last Orbital Rotation      ...    1.7513e-05  Tolerance :   1.0000e-05


----------------------
UHF SPIN CONTAMINATION
----------------------

Warning: in a DFT calculation there is little theoretical justification to 
         calculate <S**2> as in Hartree-Fock theory. We will do it anyways
         but you should keep in mind that the values have only limited relevance

Expectation value of <S**2>     :     2.014970
Ideal value S*(S+1) for S=1.0   :     2.000000
Deviation                       :     0.014970

----------------
ORBITAL ENERGIES
----------------
                 SPIN UP ORBITALS
  NO   OCC          E(Eh)            E(eV) 
   0   1.0000     -19.376827      -527.2703 
   1   1.0000     -19.337963      -526.2127 
   2   1.0000     -19.313937      -525.5589 
   3   1.0000     -10.461023      -284.6589 
   4   1.0000     -10.411426      -283.3093 
   5   1.0000     -10.343651      -281.4651 
   6   1.0000      -1.245100       -33.8809 
   7   1.0000      -1.206050       -32.8183 
   8   1.0000      -1.153155       -31.3789 
   9   1.0000      -0.902558       -24.5599 
  10   1.0000      -0.808106       -21.9897 
  11   1.0000      -0.704793       -19.1784 
  12   1.0000      -0.653465       -17.7817 
  13   1.0000      -0.609292       -16.5797 
  14   1.0000      -0.601242       -16.3606 
  15   1.0000      -0.563048       -15.3213 
  16   1.0000      -0.538985       -14.6665 
  17   1.0000      -0.533966       -14.5300 
  18   1.0000      -0.505667       -13.7599 
  19   1.0000      -0.496670       -13.5151 
  20   1.0000      -0.486441       -13.2367 
  21   1.0000      -0.443606       -12.0711 
  22   1.0000      -0.417959       -11.3732 
  23   1.0000      -0.294572        -8.0157 
  24   0.0000       0.030876         0.8402 
  25   0.0000       0.049938         1.3589 
  26   0.0000       0.053044         1.4434 
  27   0.0000       0.061165         1.6644 
  28   0.0000       0.091209         2.4819 
  29   0.0000       0.091266         2.4835 
  30   0.0000       0.096936         2.6378 
  31   0.0000       0.116001         3.1565 
  32   0.0000       0.122125         3.3232 
  33   0.0000       0.132067         3.5937 
  34   0.0000       0.136095         3.7033 

                 SPIN DOWN ORBITALS
  NO   OCC          E(Eh)            E(eV) 
   0   1.0000     -19.356586      -526.7195 
   1   1.0000     -19.335750      -526.1525 
   2   1.0000     -19.303085      -525.2636 
   3   1.0000     -10.459440      -284.6158 
   4   1.0000     -10.404901      -283.1317 
   5   1.0000     -10.342744      -281.4404 
   6   1.0000      -1.226016       -33.3616 
   7   1.0000      -1.164409       -31.6852 
   8   1.0000      -1.134056       -30.8592 
   9   1.0000      -0.879147       -23.9228 
  10   1.0000      -0.780582       -21.2407 
  11   1.0000      -0.690431       -18.7876 
  12   1.0000      -0.624217       -16.9858 
  13   1.0000      -0.582517       -15.8511 
  14   1.0000      -0.568516       -15.4701 
  15   1.0000      -0.545780       -14.8514 
  16   1.0000      -0.523084       -14.2338 
  17   1.0000      -0.520677       -14.1683 
  18   1.0000      -0.486176       -13.2295 
  19   1.0000      -0.463499       -12.6125 
  20   1.0000      -0.417563       -11.3625 
  21   1.0000      -0.383709       -10.4413 
  22   0.0000      -0.161835        -4.4037 
  23   0.0000      -0.036800        -1.0014 
  24   0.0000       0.033681         0.9165 
  25   0.0000       0.050776         1.3817 
  26   0.0000       0.057991         1.5780 
  27   0.0000       0.062419         1.6985 
  28   0.0000       0.092831         2.5261 
  29   0.0000       0.098664         2.6848 
  30   0.0000       0.114704         3.1213 
  31   0.0000       0.124871         3.3979 
  32   0.0000       0.132423         3.6034 
*Only the first 10 virtual orbitals were printed.

                    ********************************
                    * MULLIKEN POPULATION ANALYSIS *
                    ********************************

--------------------------------------------
MULLIKEN ATOMIC CHARGES AND SPIN POPULATIONS
--------------------------------------------
   0 C :    0.172120    0.491453
   1 C :    0.838487    0.075552
   2 C :    0.540249    0.027781
   3 H :   -0.012491    0.020215
   4 H :   -0.012496    0.020211
   5 H :   -0.190276   -0.000231
   6 O :   -0.567342    0.844921
   7 O :   -0.476979    0.445193
   8 O :   -0.473868    0.082216
   9 H :    0.182597   -0.007310
Sum of atomic charges         :   -0.0000000
Sum of atomic spin populations:    2.0000000

-----------------------------------------------------
MULLIKEN REDUCED ORBITAL CHARGES AND SPIN POPULATIONS
-----------------------------------------------------
CHARGE
  0 C s       :     3.106186  s :     3.106186
      pz      :     0.947116  p :     2.434116
      px      :     0.741120
      py      :     0.745881
      dz2     :     0.012652  d :     0.287578
      dxz     :     0.077698
      dyz     :     0.033222
      dx2y2   :     0.140826
      dxy     :     0.023181

  1 C s       :     3.110633  s :     3.110633
      pz      :     0.787438  p :     1.934584
      px      :     0.539652
      py      :     0.607494
      dz2     :    -0.000160  d :     0.116296
      dxz     :     0.030291
      dyz     :     0.054571
      dx2y2   :     0.043666
      dxy     :    -0.012072

  2 C s       :     3.018034  s :     3.018034
      pz      :     0.864721  p :     2.478346
      px      :     0.990443
      py      :     0.623182
      dz2     :    -0.006737  d :    -0.036629
      dxz     :    -0.015816
      dyz     :     0.006073
      dx2y2   :     0.002788
      dxy     :    -0.022937

  3 H s       :     1.016958  s :     1.016958
      pz      :     0.005471  p :    -0.004467
      px      :    -0.006642
      py      :    -0.003295

  4 H s       :     1.016973  s :     1.016973
      pz      :     0.005461  p :    -0.004477
      px      :    -0.006643
      py      :    -0.003296

  5 H s       :     1.176784  s :     1.176784
      pz      :    -0.008555  p :     0.013493
      px      :     0.019303
      py      :     0.002745

  6 O s       :     4.145068  s :     4.145068
      pz      :     1.715427  p :     4.381280
      px      :     1.333517
      py      :     1.332336
      dz2     :     0.002158  d :     0.040993
      dxz     :     0.000705
      dyz     :     0.016226
      dx2y2   :     0.010149
      dxy     :     0.011755

  7 O s       :     4.037120  s :     4.037120
      pz      :     1.549139  p :     4.400913
      px      :     1.557117
      py      :     1.294657
      dz2     :     0.002480  d :     0.038946
      dxz     :     0.001899
      dyz     :     0.015840
      dx2y2   :     0.008022
      dxy     :     0.010704

  8 O s       :     3.982032  s :     3.982032
      pz      :     1.806609  p :     4.470985
      px      :     1.503713
      py      :     1.160663
      dz2     :     0.001650  d :     0.020851
      dxz     :     0.009065
      dyz     :     0.004460
      dx2y2   :     0.004416
      dxy     :     0.001259

  9 H s       :     0.745328  s :     0.745328
      pz      :     0.030008  p :     0.072075
      px      :     0.022201
      py      :     0.019866


SPIN
  0 C s       :    -0.010627  s :    -0.010627
      pz      :     0.448462  p :     0.501752
      px      :     0.052625
      py      :     0.000665
      dz2     :    -0.001612  d :     0.000328
      dxz     :     0.010268
      dyz     :     0.010077
      dx2y2   :    -0.005242
      dxy     :    -0.013162

  1 C s       :    -0.017522  s :    -0.017522
      pz      :     0.071442  p :     0.072175
      px      :     0.008362
      py      :    -0.007629
      dz2     :    -0.000334  d :     0.020899
      dxz     :     0.020998
      dyz     :     0.000891
      dx2y2   :     0.001200
      dxy     :    -0.001856

  2 C s       :    -0.005952  s :    -0.005952
      pz      :    -0.003127  p :     0.029313
      px      :     0.003072
      py      :     0.029369
      dz2     :    -0.000287  d :     0.004419
      dxz     :    -0.003339
      dyz     :     0.001282
      dx2y2   :     0.004900
      dxy     :     0.001864

  3 H s       :     0.022178  s :     0.022178
      pz      :    -0.000064  p :    -0.001963
      px      :    -0.002491
      py      :     0.000592

  4 H s       :     0.022173  s :     0.022173
      pz      :    -0.000063  p :    -0.001962
      px      :    -0.002491
      py      :     0.000592

  5 H s       :    -0.002275  s :    -0.002275
      pz      :     0.000404  p :     0.002044
      px      :     0.000156
      py      :     0.001485

  6 O s       :     0.031644  s :     0.031644
      pz      :     0.200112  p :     0.814910
      px      :     0.602451
      py      :     0.012347
      dz2     :    -0.000058  d :    -0.001634
      dxz     :    -0.000207
      dyz     :     0.001523
      dx2y2   :    -0.000179
      dxy     :    -0.002712

  7 O s       :     0.012898  s :     0.012898
      pz      :     0.177897  p :     0.433840
      px      :     0.239023
      py      :     0.016919
      dz2     :     0.000023  d :    -0.001544
      dxz     :    -0.000335
      dyz     :    -0.000565
      dx2y2   :    -0.000206
      dxy     :    -0.000462

  8 O s       :     0.007496  s :     0.007496
      pz      :     0.032003  p :     0.075392
      px      :    -0.004507
      py      :     0.047896
      dz2     :    -0.000210  d :    -0.000671
      dxz     :    -0.000599
      dyz     :     0.000178
      dx2y2   :    -0.000512
      dxy     :     0.000472

  9 H s       :    -0.012116  s :    -0.012116
      pz      :     0.000163  p :     0.004806
      px      :     0.005373
      py      :    -0.000730



                     *******************************
                     * LOEWDIN POPULATION ANALYSIS *
                     *******************************

-------------------------------------------
LOEWDIN ATOMIC CHARGES AND SPIN POPULATIONS
-------------------------------------------
   0 C :   -0.309956    0.427953
   1 C :   -0.379589    0.180566
   2 C :    0.188612    0.097068
   3 H :    0.005964    0.014762
   4 H :    0.005964    0.014761
   5 H :    0.002064    0.007430
   6 O :    0.192383    0.776429
   7 O :    0.139335    0.399153
   8 O :    0.249973    0.074934
   9 H :   -0.094751    0.006945

----------------------------------------------------
LOEWDIN REDUCED ORBITAL CHARGES AND SPIN POPULATIONS
----------------------------------------------------
CHARGE
  0 C s       :     2.595496  s :     2.595496
      pz      :     0.774764  p :     2.577277
      px      :     0.912695
      py      :     0.889819
      dz2     :     0.102113  d :     1.137182
      dxz     :     0.146860
      dyz     :     0.201840
      dx2y2   :     0.358094
      dxy     :     0.328274

  1 C s       :     2.571195  s :     2.571195
      pz      :     0.690494  p :     2.454826
      px      :     0.877240
      py      :     0.887092
      dz2     :     0.117353  d :     1.353568
      dxz     :     0.159758
      dyz     :     0.248677
      dx2y2   :     0.391762
      dxy     :     0.436018

  2 C s       :     2.608241  s :     2.608241
      pz      :     0.948267  p :     2.775642
      px      :     0.912698
      py      :     0.914678
      dz2     :     0.064261  d :     0.427505
      dxz     :     0.129487
      dyz     :     0.032648
      dx2y2   :     0.107489
      dxy     :     0.093619

  3 H s       :     0.720933  s :     0.720933
      pz      :     0.117119  p :     0.273104
      px      :     0.087792
      py      :     0.068193

  4 H s       :     0.720936  s :     0.720936
      pz      :     0.117111  p :     0.273100
      px      :     0.087797
      py      :     0.068192

  5 H s       :     0.711399  s :     0.711399
      pz      :     0.073391  p :     0.286537
      px      :     0.085828
      py      :     0.127318

  6 O s       :     3.406261  s :     3.406261
      pz      :     1.560612  p :     4.212060
      px      :     1.201173
      py      :     1.450276
      dz2     :     0.020513  d :     0.189296
      dxz     :     0.001939
      dyz     :     0.052707
      dx2y2   :     0.059523
      dxy     :     0.054615

  7 O s       :     3.400928  s :     3.400928
      pz      :     1.415819  p :     4.293299
      px      :     1.431972
      py      :     1.445507
      dz2     :     0.018881  d :     0.166438
      dxz     :     0.004766
      dyz     :     0.037779
      dx2y2   :     0.050710
      dxy     :     0.054301

  8 O s       :     3.257421  s :     3.257421
      pz      :     1.599657  p :     4.311708
      px      :     1.481767
      py      :     1.230283
      dz2     :     0.024304  d :     0.180898
      dxz     :     0.016892
      dyz     :     0.019691
      dx2y2   :     0.046179
      dxy     :     0.073833

  9 H s       :     0.596224  s :     0.596224
      pz      :     0.118509  p :     0.498527
      px      :     0.210735
      py      :     0.169283


SPIN
  0 C s       :     0.003761  s :     0.003761
      pz      :     0.303100  p :     0.324210
      px      :     0.028421
      py      :    -0.007311
      dz2     :    -0.000861  d :     0.099982
      dxz     :     0.019875
      dyz     :     0.024034
      dx2y2   :     0.007278
      dxy     :     0.049655

  1 C s       :     0.002719  s :     0.002719
      pz      :     0.056362  p :     0.067877
      px      :     0.014921
      py      :    -0.003406
      dz2     :     0.000942  d :     0.109969
      dxz     :     0.071787
      dyz     :     0.013050
      dx2y2   :     0.008523
      dxy     :     0.015667

  2 C s       :     0.001352  s :     0.001352
      pz      :    -0.001033  p :     0.041274
      px      :     0.009532
      py      :     0.032775
      dz2     :     0.000538  d :     0.054442
      dxz     :     0.046026
      dyz     :     0.007537
      dx2y2   :    -0.000758
      dxy     :     0.001100

  3 H s       :     0.011611  s :     0.011611
      pz      :     0.000546  p :     0.003151
      px      :     0.001867
      py      :     0.000737

  4 H s       :     0.011610  s :     0.011610
      pz      :     0.000546  p :     0.003150
      px      :     0.001867
      py      :     0.000738

  5 H s       :     0.004402  s :     0.004402
      pz      :    -0.000481  p :     0.003028
      px      :     0.004036
      py      :    -0.000527

  6 O s       :     0.012000  s :     0.012000
      pz      :     0.193581  p :     0.722575
      px      :     0.521697
      py      :     0.007297
      dz2     :     0.000094  d :     0.041853
      dxz     :     0.001017
      dyz     :     0.033576
      dx2y2   :     0.001450
      dxy     :     0.005716

  7 O s       :     0.006115  s :     0.006115
      pz      :     0.159734  p :     0.381855
      px      :     0.210559
      py      :     0.011562
      dz2     :     0.000052  d :     0.011183
      dxz     :     0.000985
      dyz     :     0.007458
      dx2y2   :     0.000265
      dxy     :     0.002423

  8 O s       :    -0.000576  s :    -0.000576
      pz      :     0.031324  p :     0.071459
      px      :    -0.003169
      py      :     0.043304
      dz2     :    -0.000383  d :     0.004051
      dxz     :     0.002746
      dyz     :     0.002162
      dx2y2   :    -0.001050
      dxy     :     0.000577

  9 H s       :    -0.006200  s :    -0.006200
      pz      :     0.001374  p :     0.013145
      px      :     0.012677
      py      :    -0.000906



                      *****************************
                      * MAYER POPULATION ANALYSIS *
                      *****************************

  NA   - Mulliken gross atomic population
  ZA   - Total nuclear charge
  QA   - Mulliken gross atomic charge
  VA   - Mayer's total valence
  BVA  - Mayer's bonded valence
  FA   - Mayer's free valence

  ATOM       NA         ZA         QA         VA         BVA        FA
  0 C      5.8279     6.0000     0.1721     3.8064     3.5560     0.2504
  1 C      5.1615     6.0000     0.8385     2.9344     2.9143     0.0201
  2 C      5.4598     6.0000     0.5402     3.8163     3.8126     0.0037
  3 H      1.0125     1.0000    -0.0125     0.8768     0.8762     0.0006
  4 H      1.0125     1.0000    -0.0125     0.8767     0.8761     0.0006
  5 H      1.1903     1.0000    -0.1903     0.8898     0.8898     0.0000
  6 O      8.5673     8.0000    -0.5673     1.9153     1.4880     0.4273
  7 O      8.4770     8.0000    -0.4770     1.9497     1.8503     0.0993
  8 O      8.4739     8.0000    -0.4739     1.8063     1.8024     0.0039
  9 H      0.8174     1.0000     0.1826     0.9800     0.9797     0.0002

  Mayer bond orders larger than 0.100000
B(  0-C ,  1-C ) :   0.8311 B(  0-C ,  2-C ) :   1.2204 B(  0-C ,  3-H ) :   0.1228 
B(  0-C ,  4-H ) :   0.1228 B(  0-C ,  5-H ) :   0.1653 B(  0-C ,  6-O ) :   1.0225 
B(  0-C ,  8-O ) :   0.1123 B(  1-C ,  7-O ) :   1.5759 B(  1-C ,  8-O ) :   0.6859 
B(  2-C ,  3-H ) :   0.8696 B(  2-C ,  4-H ) :   0.8696 B(  2-C ,  5-H ) :   0.8554 
B(  6-O ,  7-O ) :   0.2151 B(  8-O ,  9-H ) :   0.9692 

-------
TIMINGS
-------

Total SCF time: 0 days 0 hours 1 min 10 sec 

Total time                  ....      70.931 sec
Sum of individual times     ....      67.813 sec  ( 95.6%)

SCF preparation             ....       0.444 sec  (  0.6%)
Fock matrix formation       ....      66.220 sec  ( 93.4%)
  Startup                   ....       0.067 sec  (  0.1% of F)
  Coulomb+Exchange Fock     ....      54.422 sec  ( 82.2% of F)
  XC integration            ....      14.285 sec  ( 21.6% of F)
    XC Preparation          ....       0.000 sec  (  0.0% of XC)
    Basis function eval.    ....       3.192 sec  ( 22.3% of XC)
    Density eval.           ....       2.840 sec  ( 19.9% of XC)
    XC-Functional eval.     ....       1.095 sec  (  7.7% of XC)
    XC-Potential eval.      ....       5.616 sec  ( 39.3% of XC)
Diagonalization             ....       0.000 sec  (  0.0%)
Density matrix formation    ....       0.220 sec  (  0.3%)
Total Energy calculation    ....       0.079 sec  (  0.1%)
Population analysis         ....       0.059 sec  (  0.1%)
Orbital Transformation      ....       0.064 sec  (  0.1%)
Orbital Orthonormalization  ....       0.000 sec  (  0.0%)
DIIS solution               ....       0.272 sec  (  0.4%)
SOSCF solution              ....       0.453 sec  (  0.6%)
Finished LeanSCF after  71.0 sec

Maximum memory used throughout the entire LEANSCF-calculation: 12.4 MB


           ************************************************************
           *        Program running with 8 parallel MPI-processes     *
           *              working on a common directory               *
           ************************************************************

------------------------------------------------------------------------------
                         ORCA PROPERTY INTEGRAL CALCULATIONS
------------------------------------------------------------------------------

GBWName                                   ... t1_freq_0_wat.gbw
Number of atoms                           ...     10
Number of basis functions                 ...    210
Max core memory                           ...   8000 MB

Dipole integrals                          ... YES
Quadrupole integrals                      ...  NO
Linear momentum integrals                 ...  NO
Angular momentum integrals                ...  NO
Higher moments length integrals           ...  NO
Higher moments velocity integrals         ...  NO
Kinetic energy integrals                  ...  NO
GIAO right hand sides                     ...  NO
GIAO dipole derivative integrals          ...  NO
SOC integrals                             ...  NO
EPR diamagnetic integrals (GIAO)          ...  NO
EPR gauge integrals                       ...  NO
Field gradient integrals                  ...  NO (   0 nuclei)
Spin-dipole/Fermi contact integrals       ...  NO (   0 nuclei)
Contact density integrals                 ...  NO (   0 nuclei)
Nucleus-orbit integrals                   ...  NO (   0 nuclei)
Geometric perturbations                   ... YES (  10 nuclei)

Choice of electric origin   ... Center of mass
Position of electric origin ... (  0.1107, -0.0308,  0.0000) 
Choice of magnetic origin   ... GIAO
Position of magnetic origin ... (  0.0000,  0.0000,  0.0000) 

Calculating integrals                     ... Electric Dipole (Length)     done (  0.2 sec)
Calculating integrals                     ... Geometrical perturbation right hand sides

-----------------------
GEOMETRIC PERTURBATIONS (10 nuclei)
-----------------------

MaxCore                            ...   8000 MB
Number of batches                  ...      1

BATCH   0: Atoms    0 -    9 ( 30 perturbations)
   => H(core) and overlap derivative integrals     ... done (     0.2 sec)
   => Making and storing internal U-coefficients   ... done (     0.0 sec)
   => Exact two electron derivative integrals      ... done (    29.1 sec)
   => Exact two-electron response operators        ... done (    73.3 sec)
   => XC derivative integrals                      ... done (    64.0 sec)
   => XC response operators                        ... done (    15.3 sec)
   => Completing and storing right hand sides      ... done (     0.0 sec)
   => Total time for right hand sides = 153.4 sec

  geometrical perturbations done (153.4 sec)

Property integrals calculated in 153.6 sec

Maximum memory used throughout the entire PROPINT-calculation: 52.3 MB

-------------------------   --------------------
FINAL SINGLE POINT ENERGY      -342.232384078994
-------------------------   --------------------



           ************************************************************
           *        Program running with 8 parallel MPI-processes     *
           *              working on a common directory               *
           ************************************************************
------------------------------------------------------------------------------
                         ORCA SCF GRADIENT CALCULATION
------------------------------------------------------------------------------

Nuc. rep. gradient        (SHARK) ... done (  0.0 sec)
HCore & Overlap gradient  (SHARK) ... done (  0.1 sec)
Two-electron gradient     (SHARK) ... done ( 12.1 sec)
XC gradient                       ... done (  3.1 sec)

------------------
CARTESIAN GRADIENT
------------------

   1   C   :    0.025417027    0.000774314   -0.000004810
   2   C   :   -0.047825264   -0.010505077    0.000000166
   3   C   :    0.011658655    0.002935942   -0.000002003
   4   H   :   -0.002871580    0.000275711    0.001751626
   5   H   :   -0.002874489    0.000275882   -0.001751679
   6   H   :   -0.005297571    0.003016282    0.000001471
   7   O   :   -0.004841230   -0.021695581    0.000004911
   8   O   :    0.020481887    0.033214768    0.000000413
   9   O   :    0.021303482   -0.011058283    0.000001886
  10   H   :   -0.015150918    0.002766043   -0.000001983

Difference to translation invariance:
           :   -0.0000000000   -0.0000000000   -0.0000000000

Difference to rotation invariance:
           :    0.0000000920   -0.0000001027    0.0000056208

Norm of the Cartesian gradient     ...    0.0779674966
RMS gradient                       ...    0.0142348522
MAX gradient                       ...    0.0478252640

-------
TIMINGS
-------

Total SCF gradient time     ....       15.260 sec

Densities                   ....       0.001 sec  (  0.0%)
One electron gradient       ....       0.051 sec  (  0.3%)
Two electron gradient       ....      12.113 sec  ( 79.4%)
XC gradient                 ....       3.095 sec  ( 20.3%)

Maximum memory used throughout the entire SCFGRAD-calculation: 21.3 MB


           ************************************************************
           *        Program running with 8 parallel MPI-processes     *
           *              working on a common directory               *
           ************************************************************
------------------------------------------------------------------------------
                            ORCA SCF RESPONSE CALCULATION
------------------------------------------------------------------------------

GBWName                                 ... t1_freq_0_wat.gbw
Number of atoms                         ...     10
Number of basis functions               ...    210
Max core memory                         ...   8000 MB

Electric field perturbation             ...  NO
Quadrupolar field perturbation          ...  NO
Magnetic field perturbation (no GIAO)   ...  NO
Magnetic field perturbation (with GIAO) ...  NO
Linear momentum (velocity) perturbation ...  NO
Spin-orbit coupling perturbation        ...  NO
Choice of electric origin               ... Center of mass
Position of electric origin             ...     0.110678    -0.030761     0.000005
Choice of magnetic origin               ... GIAO
Position of magnetic origin             ...     0.000000     0.000000     0.000000
Nuclear geometric perturbations         ... YES (  30 perturbations)
Nucleus-orbit perturbations             ...  NO (   0 perturbations)
Spin-dipole/Fermi contact perturbations ...  NO (   0 perturbations)

Total number of real perturbations      ...     30
Total number of imaginary perturbations ...      0
Total number of triplet perturbations   ...      0
Total number of SOC perturbations       ...      0

Using XC Grid                  ... (t1_freq_0_wat.grid_cpscf.tmp) 
Recalculating density on grid  ... (t1_freq_0_wat.grho_cpscf0.tmp) done
Calculating the xc-kernel      ... (t1_freq_0_wat.fxc_cpscf0.tmp) done

                                **********************
                                * REAL PERTURBATIONS *
                                **********************



-------------------
SHARK CP-SCF DRIVER
-------------------

Dimension of the orbital basis          ...    174
Dimension of the CPSCF-problem          ...   6944
Number of operators                     ...      2
Max. number of iterations               ...    128
Convergence Tolerance                   ... 1.0e-04
Number of perturbations                 ...     30
Perturbation type                       ... REAL

----------------------------
POPLE LINEAR EQUATION SOLVER
----------------------------

  ITERATION   0:   ||err||_max =   5.0224e-01 ( 100.7 sec   0/ 30 done)
  ITERATION   1:   ||err||_max =   2.2776e-01 (  98.4 sec   0/ 30 done)
  ITERATION   2:   ||err||_max =   1.8981e-01 (  98.6 sec   0/ 30 done)
  ITERATION   3:   ||err||_max =   1.5731e-01 ( 101.0 sec   0/ 30 done)
  ITERATION   4:   ||err||_max =   1.2623e-01 ( 100.7 sec   0/ 30 done)
  ITERATION   5:   ||err||_max =   8.1083e-02 ( 103.5 sec   0/ 30 done)
  ITERATION   6:   ||err||_max =   4.0818e-02 ( 102.4 sec   0/ 30 done)
  ITERATION   7:   ||err||_max =   1.8709e-02 ( 101.5 sec   0/ 30 done)
  ITERATION   8:   ||err||_max =   7.1299e-03 ( 103.2 sec   0/ 30 done)
  ITERATION   9:   ||err||_max =   3.1498e-03 ( 102.9 sec   1/ 30 done)
  ITERATION  10:   ||err||_max =   9.9874e-04 (  90.0 sec   4/ 30 done)
  ITERATION  11:   ||err||_max =   4.2385e-04 (  78.2 sec  11/ 30 done)
  ITERATION  12:   ||err||_max =   1.7018e-04 (  56.4 sec  22/ 30 done)
  ITERATION  13:   ||err||_max =   1.0366e-04 (  18.8 sec  28/ 30 done)
  ITERATION  14:   ||err||_max =   6.5622e-05 (   6.4 sec  30/ 30 done)

CP-SCF equations solved in 1263.1 sec
Response densities calculated in   0.0 sec

Maximum memory used throughout the entire SCFRESP-calculation: 68.4 MB


           ************************************************************
           *        Program running with 8 parallel MPI-processes     *
           *              working on a common directory               *
           ************************************************************

------------------------------------------------------------------------------
                              ORCA PROPERTY CALCULATIONS
------------------------------------------------------------------------------

GBWName                                 ... t1_freq_0_wat.gbw
Number of atoms                         ...     10
Number of basis functions               ...    210
Max core memory                         ...   8000 MB

Electric properties:
Dipole moment                           ... YES
Quadrupole moment                       ...  NO
Static polarizability (Dipole/Dipole)   ...  NO
Static polarizability (Dipole/Quad.)    ...  NO
Static polarizability (Quad./Quad.)     ...  NO
Static polarizability (Velocity)        ...  NO
Static hyperpolarizability              ...  NO

Atomic electric properties:
Dipole moment                           ...  NO
Quadrupole moment                       ...  NO
Static polarizability                   ...  NO

Choice of electric origin               ... Center of mass
Position of electric origin             ...     0.110678    -0.030761     0.000005

General magnetic properties:
Magnetizability                         ...  NO

EPR properties:
g-Tensor (aka g-matrix)                 ...  NO
Zero-Field splitting spin-orbit         ...  NO
Zero-field splitting spin-spin          ...  NO
Hyperfine couplings                     ...  NO (   0 nuclei)
Quadrupole couplings                    ...  NO (   0 nuclei)
Contact density                         ...  NO (   0 nuclei)

NMR properties:
Chemical shifts                         ...  NO (   0 nuclei)
Spin-rotation constants                 ...  NO (   0 nuclei)
Spin-spin couplings                     ...  NO (   0 nuclei,    0 pairs)

Choice of magnetic origin               ... GIAO
Position of magnetic origin             ...     0.000000     0.000000     0.000000

Properties with geometric perturbations:
SCF Hessian                             ... YES
IR spectrum                             ... YES
VCD spectrum                            ...  NO
X-ray spectroscopy properties:
SCF XES/XAS/RIXS spectra                ...  NO

SCF SOC stabilization energy            ...  NO
Diagonal Born-Oppenheimer correction    ...  NO

-------------
DIPOLE MOMENT
-------------

Method             : SCF
Type of density    : Electron Density
Multiplicity       :   3
Irrep              :   0
Energy             :  -342.2323840789937321 Eh
Basis              : AO
                                X                 Y                 Z
Electronic contribution:      3.932556071      -1.656776496       0.000069267
Nuclear contribution   :     -5.092995573       1.415109431      -0.000137035
                        -----------------------------------------
Total Dipole Moment    :     -1.160439502      -0.241667064      -0.000067768
                        -----------------------------------------
Magnitude (a.u.)       :      1.185336582
Magnitude (Debye)      :      3.012886154



--------------------
Rotational spectrum 
--------------------
 
Rotational constants in cm-1:             0.180280             0.119815             0.072965 
Rotational constants in MHz :          5404.669880          3591.960879          2187.443770 

Dipole components along the rotational axes: 
x,y,z [a.u.] :    -1.183613    -0.063894    -0.000068 
x,y,z [Debye]:    -3.008506    -0.162406    -0.000173 

 

Dipole moment calculation done in   0.1 sec 

-----------
SCF HESSIAN
-----------

Occupied/Occupied contributions to the Hessian:
   => Occupied/Occupied contributions              ... done (  0.2 sec)
Perturbed density contributions to the Hessian:
   => Perturbed density contributions              ... done (  0.1 sec)
Explicit contributions to the Hessian:
   => Nuclear repulsion Hessian                    ... done (  0.0 sec)
   => HCore and overlap Hessian                    ... done (  0.9 sec)
   => Exact two electron integral Hessian          ... done ( 96.9 sec)
   => XC-Hessian                                   ... done ( 23.8 sec)
   => Explicit contributions done
Dipole derivatives                                 ... done (  0.0 sec)
Mass weighting the Hessian           ... done
Calculating normal modes             ... done
Scaling frequencies                  ... done

-----------------------
VIBRATIONAL FREQUENCIES
-----------------------

Scaling factor for frequencies =  1.000000000  (already applied!)

     0:       0.00 cm**-1
     1:       0.00 cm**-1
     2:       0.00 cm**-1
     3:       0.00 cm**-1
     4:       0.00 cm**-1
     5:       0.00 cm**-1
     6:     131.84 cm**-1
     7:     182.40 cm**-1
     8:     264.86 cm**-1
     9:     341.22 cm**-1
    10:     366.62 cm**-1
    11:     527.07 cm**-1
    12:     563.37 cm**-1
    13:     609.38 cm**-1
    14:     689.43 cm**-1
    15:     767.62 cm**-1
    16:     983.87 cm**-1
    17:    1013.47 cm**-1
    18:    1076.72 cm**-1
    19:    1133.62 cm**-1
    20:    1259.83 cm**-1
    21:    1377.89 cm**-1
    22:    1393.32 cm**-1
    23:    1435.09 cm**-1
    24:    1459.80 cm**-1
    25:    1570.54 cm**-1
    26:    3013.66 cm**-1
    27:    3076.33 cm**-1
    28:    3148.26 cm**-1
    29:    3548.83 cm**-1


------------
NORMAL MODES
------------

These modes are the Cartesian displacements weighted by the diagonal matrix
M(i,i)=1/sqrt(m[i]) where m[i] is the mass of the displaced atom
Thus, these vectors are normalized but *not* orthogonal

                  0          1          2          3          4          5    
      0       0.000000   0.000000   0.000000   0.000000   0.000000   0.000000
      1       0.000000   0.000000   0.000000   0.000000   0.000000   0.000000
      2       0.000000   0.000000   0.000000   0.000000   0.000000   0.000000
      3       0.000000   0.000000   0.000000   0.000000   0.000000   0.000000
      4       0.000000   0.000000   0.000000   0.000000   0.000000   0.000000
      5       0.000000   0.000000   0.000000   0.000000   0.000000   0.000000
      6       0.000000   0.000000   0.000000   0.000000   0.000000   0.000000
      7       0.000000   0.000000   0.000000   0.000000   0.000000   0.000000
      8       0.000000   0.000000   0.000000   0.000000   0.000000   0.000000
      9       0.000000   0.000000   0.000000   0.000000   0.000000   0.000000
     10       0.000000   0.000000   0.000000   0.000000   0.000000   0.000000
     11       0.000000   0.000000   0.000000   0.000000   0.000000   0.000000
     12       0.000000   0.000000   0.000000   0.000000   0.000000   0.000000
     13       0.000000   0.000000   0.000000   0.000000   0.000000   0.000000
     14       0.000000   0.000000   0.000000   0.000000   0.000000   0.000000
     15       0.000000   0.000000   0.000000   0.000000   0.000000   0.000000
     16       0.000000   0.000000   0.000000   0.000000   0.000000   0.000000
     17       0.000000   0.000000   0.000000   0.000000   0.000000   0.000000
     18       0.000000   0.000000   0.000000   0.000000   0.000000   0.000000
     19       0.000000   0.000000   0.000000   0.000000   0.000000   0.000000
     20       0.000000   0.000000   0.000000   0.000000   0.000000   0.000000
     21       0.000000   0.000000   0.000000   0.000000   0.000000   0.000000
     22       0.000000   0.000000   0.000000   0.000000   0.000000   0.000000
     23       0.000000   0.000000   0.000000   0.000000   0.000000   0.000000
     24       0.000000   0.000000   0.000000   0.000000   0.000000   0.000000
     25       0.000000   0.000000   0.000000   0.000000   0.000000   0.000000
     26       0.000000   0.000000   0.000000   0.000000   0.000000   0.000000
     27       0.000000   0.000000   0.000000   0.000000   0.000000   0.000000
     28       0.000000   0.000000   0.000000   0.000000   0.000000   0.000000
     29       0.000000   0.000000   0.000000   0.000000   0.000000   0.000000
                  6          7          8          9         10         11    
      0      -0.000006   0.000003  -0.029928   0.103104   0.000053  -0.011446
      1      -0.000011  -0.000015   0.129414   0.064398   0.000035  -0.251646
      2      -0.115635  -0.009144   0.000022  -0.000340   0.525204  -0.000022
      3      -0.000003   0.000004   0.008789   0.125167   0.000074  -0.094915
      4      -0.000002   0.000001   0.052406   0.053322   0.000027   0.232909
      5      -0.019458   0.018197   0.000008  -0.000062   0.106382   0.000001
      6       0.000011   0.000015  -0.242616  -0.141273  -0.000072   0.179470
      7       0.000013   0.000010  -0.137800  -0.209049  -0.000110  -0.116689
      8       0.152762  -0.071343  -0.000021   0.000053  -0.036393   0.000000
      9       0.369345   0.278527  -0.204009  -0.091501  -0.208020   0.146905
     10       0.187052   0.393145  -0.325261  -0.389813   0.410422   0.065928
     11       0.454004   0.201112  -0.004434   0.002971  -0.114058   0.007203
     12      -0.369294  -0.278473  -0.204155  -0.091784   0.207912   0.146916
     13      -0.186993  -0.393063  -0.325551  -0.389318  -0.410825   0.066021
     14       0.454047   0.201154   0.004557  -0.002745  -0.114058  -0.007233
     15       0.000012   0.000041  -0.593370  -0.412338  -0.000214   0.494678
     16       0.000001  -0.000017  -0.011235  -0.110117  -0.000070  -0.226026
     17      -0.219353  -0.637357  -0.000205   0.000287  -0.418323   0.000036
     18       0.000009  -0.000022   0.191849  -0.396053  -0.000266  -0.164404
     19      -0.000010  -0.000009   0.099630   0.073760   0.000003  -0.247923
     20      -0.150339   0.053034  -0.000010   0.000145  -0.258201   0.000024
     21      -0.000005  -0.000020   0.254136   0.116902   0.000075   0.338932
     22       0.000001   0.000003  -0.014158   0.011273   0.000021   0.133292
     23      -0.103139   0.096696   0.000022   0.000065  -0.141128   0.000007
     24      -0.000008   0.000017  -0.164047   0.225427   0.000154  -0.259930
     25       0.000006   0.000004  -0.078244   0.042615   0.000040   0.207384
     26       0.177397  -0.078214  -0.000015   0.000031  -0.005968  -0.000023
     27      -0.000021   0.000038  -0.330572   0.411685   0.000242  -0.304106
     28      -0.000000   0.000001   0.022792  -0.048563  -0.000004   0.235595
     29       0.308321  -0.157783   0.000020  -0.000169  -0.012786   0.000114
                 12         13         14         15         16         17    
      0       0.239861   0.000010   0.000001   0.017836  -0.029761   0.000026
      1       0.058525  -0.000003  -0.000014   0.089451   0.019960   0.000008
      2       0.000015   0.022988  -0.183158   0.000021  -0.000015  -0.095819
      3       0.100168   0.000017   0.000007  -0.206286  -0.035806   0.000020
      4       0.095805  -0.000017  -0.000004  -0.199290   0.020337   0.000002
      5       0.000012  -0.078085   0.663620   0.000012   0.000004   0.006053
      6       0.235683   0.000016   0.000002   0.275669  -0.062670   0.000006
      7      -0.202172  -0.000020  -0.000002  -0.184047  -0.140510   0.000028
      8       0.000009  -0.006645  -0.034201  -0.000005   0.000032   0.141511
      9       0.266889  -0.036290   0.079360   0.292820  -0.067041  -0.528490
     10      -0.351558   0.035029  -0.097996  -0.405826   0.359536   0.343174
     11      -0.005173  -0.027246   0.009867  -0.025547   0.077438  -0.192668
     12       0.266873   0.036329  -0.079338   0.292749  -0.066857   0.528488
     13      -0.351589  -0.035134   0.097920  -0.405890   0.359426  -0.343260
     14       0.005213  -0.027242   0.009874   0.025617  -0.077523  -0.192696
     15       0.050967  -0.000030  -0.000044  -0.038788   0.712765  -0.000107
     16      -0.136819  -0.000004   0.000016  -0.075981  -0.408948   0.000053
     17       0.000002  -0.031366   0.048728   0.000007  -0.000071  -0.317572
     18      -0.054331  -0.000021  -0.000003   0.007665   0.017689  -0.000001
     19       0.128632   0.000028   0.000024   0.262892   0.086128  -0.000024
     20      -0.000011  -0.003815  -0.004205  -0.000015  -0.000006   0.006539
     21      -0.190771  -0.000014  -0.000011  -0.006685   0.009401  -0.000009
     22       0.203808   0.000009  -0.000002  -0.296139   0.001490  -0.000019
     23      -0.000018   0.053434  -0.177933  -0.000001  -0.000000  -0.000604
     24      -0.194540   0.000008   0.000015  -0.110149   0.027795  -0.000023
     25      -0.241808   0.000001  -0.000004   0.304649  -0.028373   0.000016
     26       0.000017  -0.060205  -0.198014   0.000001  -0.000001   0.001870
     27      -0.466716  -0.000093  -0.000109   0.146683   0.078028   0.000012
     28      -0.028457  -0.000023   0.000007   0.081832  -0.056265   0.000000
     29      -0.000295   0.989580   0.647805  -0.000190   0.000022  -0.037532
                 18         19         20         21         22         23    
      0      -0.409200  -0.015099   0.476173  -0.046094  -0.028969   0.000001
      1      -0.244192  -0.286567  -0.423136   0.036658  -0.014222   0.000001
      2      -0.000028   0.000007   0.000022   0.000001  -0.000003  -0.016408
      3      -0.205677   0.347496  -0.356923   0.043061   0.026993   0.000001
      4      -0.014456  -0.240215   0.069808  -0.024556  -0.123669  -0.000005
      5      -0.000006  -0.000000  -0.000006   0.000001   0.000008   0.000611
      6       0.171856  -0.109882  -0.229309  -0.078214   0.032811  -0.000014
      7      -0.017968   0.015767   0.205208   0.081847  -0.014647   0.000007
      8       0.000044   0.000008   0.000007   0.000004  -0.000005  -0.056013
      9       0.153448  -0.116778   0.042529   0.281262  -0.124391   0.006781
     10      -0.412913   0.112687  -0.154244  -0.463653   0.068369   0.485575
     11      -0.079737   0.010509   0.106779   0.148616  -0.091391   0.057908
     12       0.153784  -0.116774   0.042531   0.281236  -0.124379  -0.006726
     13      -0.413101   0.112778  -0.154248  -0.463565   0.068279  -0.485637
     14       0.079636  -0.010523  -0.106791  -0.148629   0.091411   0.057898
     15      -0.196632   0.075545   0.087306   0.544947  -0.114818   0.000083
     16       0.095390  -0.041117   0.110646  -0.150951   0.036993  -0.000002
     17      -0.000096  -0.000034  -0.000021  -0.000075   0.000065   0.719812
     18       0.023209  -0.019604   0.020311   0.003016   0.007150  -0.000001
     19       0.199751   0.160756   0.204307  -0.020691   0.015510  -0.000003
     20      -0.000004  -0.000006  -0.000016   0.000001  -0.000001   0.001184
     21       0.093118  -0.024794   0.032355   0.002094   0.028857   0.000000
     22       0.193795   0.049917  -0.012413   0.015854   0.114888   0.000001
     23       0.000005  -0.000000   0.000002  -0.000001  -0.000001  -0.000356
     24       0.226436  -0.072688  -0.004326  -0.022555  -0.083515   0.000005
     25      -0.148259   0.132397  -0.049400   0.008235   0.009145   0.000001
     26       0.000014   0.000011  -0.000003  -0.000001  -0.000005   0.000821
     27      -0.272037  -0.635022   0.371819   0.137559   0.750217  -0.000059
     28       0.133502   0.459525  -0.298864  -0.095221  -0.570875   0.000043
     29      -0.000160  -0.000208   0.000033   0.000009   0.000027  -0.006127
                 24         25         26         27         28         29    
      0      -0.008896  -0.165605  -0.000154   0.000000  -0.003015  -0.002603
      1       0.000977  -0.189466   0.000422  -0.000000   0.000441  -0.002019
      2      -0.000000   0.000024   0.000000  -0.000427   0.000000   0.000001
      3      -0.010145   0.230637   0.000701  -0.000000   0.001400  -0.003143
      4      -0.032781   0.388827  -0.000223  -0.000000   0.001682  -0.010069
      5       0.000001  -0.000002  -0.000000  -0.000432   0.000000   0.000000
      6      -0.039739   0.034133  -0.050256  -0.000001  -0.048151   0.000784
      7      -0.039063  -0.003417   0.013756  -0.000002  -0.078039  -0.000784
      8       0.000003  -0.000013  -0.000003  -0.091507   0.000002  -0.000000
      9       0.474597   0.124827   0.364979  -0.413743   0.141156  -0.000287
     10       0.239089   0.007763   0.095336  -0.108620   0.027432   0.000168
     11       0.399567   0.072555  -0.533696   0.559175  -0.211959  -0.000352
     12       0.474557   0.124789   0.365076   0.413753   0.141188  -0.000287
     13       0.239073   0.007703   0.095374   0.108636   0.027447   0.000168
     14      -0.399626  -0.072550   0.533714   0.559062   0.211959   0.000353
     15      -0.322938  -0.209245  -0.133486   0.000002   0.311127  -0.002293
     16       0.073563   0.062343  -0.353685   0.000006   0.873767   0.010772
     17       0.000009   0.000104   0.000011  -0.020586  -0.000029   0.000000
     18      -0.001833   0.031474  -0.000011  -0.000000   0.000289   0.002698
     19      -0.005698   0.104675  -0.000380   0.000000  -0.000336   0.001821
     20       0.000001  -0.000014  -0.000000   0.000065  -0.000000  -0.000001
     21       0.006513  -0.076393  -0.000008   0.000000  -0.000514   0.002012
     22       0.024216  -0.212087  -0.000102   0.000000  -0.000782   0.003271
     23      -0.000000   0.000000  -0.000000   0.000061   0.000000  -0.000000
     24      -0.001523  -0.071866  -0.000353   0.000000   0.000279  -0.035399
     25       0.001422  -0.018282   0.000058   0.000000   0.000193  -0.048638
     26      -0.000000  -0.000003   0.000000   0.000067   0.000000  -0.000004
     27       0.024090   0.631655   0.001666  -0.000000  -0.001328   0.549103
     28      -0.023788  -0.417610   0.003427  -0.000000  -0.009354   0.833425
     29      -0.000004   0.000052   0.000000  -0.000120  -0.000001   0.000071


-----------
IR SPECTRUM
-----------

 Mode   freq       eps      Int      T**2         TX        TY        TZ
       cm**-1   L/(mol*cm) km/mol    a.u.
----------------------------------------------------------------------------
  6:    131.84   0.001219    6.16  0.002885  ( 0.000018  0.000025  0.053711)
  7:    182.40   0.000584    2.95  0.000999  (-0.000032 -0.000022 -0.031612)
  8:    264.86   0.002551   12.89  0.003006  (-0.011350  0.053639 -0.000001)
  9:    341.22   0.025980  131.29  0.023760  (-0.085161 -0.128480 -0.000012)
 10:    366.62   0.000174    0.88  0.000148  (-0.000040 -0.000047  0.012179)
 11:    527.07   0.000914    4.62  0.000541  ( 0.012374  0.019692  0.000004)
 12:    563.37   0.000653    3.30  0.000362  (-0.009182 -0.016656 -0.000010)
 13:    609.38   0.010871   54.94  0.005567  ( 0.000038  0.000036  0.074614)
 14:    689.43   0.005811   29.37  0.002630  ( 0.000013  0.000013  0.051287)
 15:    767.62   0.008020   40.53  0.003260  ( 0.055865  0.011814 -0.000007)
 16:    983.87   0.007977   40.31  0.002530  (-0.038491 -0.032383  0.000000)
 17:   1013.47   0.000286    1.45  0.000088  (-0.000008 -0.000021 -0.009385)
 18:   1076.72   0.071502  361.34  0.020723  ( 0.055778  0.132711 -0.000010)
 19:   1133.62   0.156118  788.95  0.042976  ( 0.177769  0.106649 -0.000009)
 20:   1259.83   0.007289   36.84  0.001806  (-0.041942  0.006814 -0.000001)
 21:   1377.89   0.011680   59.03  0.002645  (-0.007160 -0.050932 -0.000002)
 22:   1393.32   0.056078  283.39  0.012560  ( 0.035297 -0.106367  0.000002)
 23:   1435.09   0.001681    8.50  0.000366  ( 0.000011  0.000005  0.019121)
 24:   1459.80   0.006642   33.57  0.001420  ( 0.031951  0.019974 -0.000003)
 25:   1570.54   0.004135   20.89  0.000822  (-0.004244 -0.028346  0.000005)
 26:   3013.66   0.003356   16.96  0.000348  (-0.018642 -0.000031 -0.000000)
 27:   3076.33   0.001391    7.03  0.000141  ( 0.000001 -0.000001 -0.011880)
 28:   3148.26   0.000970    4.90  0.000096  ( 0.003875  0.009007  0.000000)
 29:   3548.83   0.036786  185.90  0.003235  (-0.045137 -0.034604  0.000004)

* The epsilon (eps) is given for a Dirac delta lineshape.
** The dipole moment derivative (T) already includes vibrational overlap.

The first frequency considered to be a vibration is 6
The total number of vibrations considered is 24


--------------------------
THERMOCHEMISTRY AT 298.15K
--------------------------

Temperature         ...   298.15 K
Pressure            ...     1.00 atm
Total Mass          ...    88.06 AMU
Quasi RRHO          ...     True
Cut-Off Frequency   ...     1.00 cm^-1

Throughout the following assumptions are being made:
  (1) The electronic state is orbitally nondegenerate
      but the spin degeneracy is treated
  (2) There are no thermally accessible electronically excited states
  (3) Hindered rotations indicated by low frequency modes are not
      treated as such but are treated as vibrations and this may
      cause some error
  (4) All equations used are the standard statistical mechanics
      equations for an ideal gas
  (5) All vibrations are strictly harmonic

freq.     131.84  E(vib)   ...       0.42 
freq.     182.40  E(vib)   ...       0.37 
freq.     264.86  E(vib)   ...       0.29 
freq.     341.22  E(vib)   ...       0.23 
freq.     366.62  E(vib)   ...       0.22 
freq.     527.07  E(vib)   ...       0.13 
freq.     563.37  E(vib)   ...       0.11 
freq.     609.38  E(vib)   ...       0.10 
freq.     689.43  E(vib)   ...       0.07 
freq.     767.62  E(vib)   ...       0.06 
freq.     983.87  E(vib)   ...       0.02 
freq.    1013.47  E(vib)   ...       0.02 
freq.    1076.72  E(vib)   ...       0.02 
freq.    1133.62  E(vib)   ...       0.01 
freq.    1259.83  E(vib)   ...       0.01 
freq.    1377.89  E(vib)   ...       0.01 
freq.    1393.32  E(vib)   ...       0.00 
freq.    1435.09  E(vib)   ...       0.00 
freq.    1459.80  E(vib)   ...       0.00 
freq.    1570.54  E(vib)   ...       0.00 
freq.    3013.66  E(vib)   ...       0.00 
freq.    3076.33  E(vib)   ...       0.00 
freq.    3148.26  E(vib)   ...       0.00 
freq.    3548.83  E(vib)   ...       0.00 

------------
INNER ENERGY
------------

The inner energy is: U= E(el) + E(ZPE) + E(vib) + E(rot) + E(trans)
    E(el)   - is the total energy from the electronic structure calculation
              = E(kin-el) + E(nuc-el) + E(el-el) + E(nuc-nuc)
    E(ZPE)  - the the zero temperature vibrational energy from the frequency calculation
    E(vib)  - the the finite temperature correction to E(ZPE) due to population
              of excited vibrational states
    E(rot)  - is the rotational thermal energy
    E(trans)- is the translational thermal energy

Summary of contributions to the inner energy U:
Electronic energy                ...   -342.23238408 Eh
Zero point energy                ...      0.06819705 Eh      42.79 kcal/mol
Thermal vibrational correction   ...      0.00335927 Eh       2.11 kcal/mol
Thermal rotational correction    ...      0.00141627 Eh       0.89 kcal/mol
Thermal translational correction ...      0.00141627 Eh       0.89 kcal/mol
-----------------------------------------------------------------------
Total thermal energy                   -342.15799522 Eh


Summary of corrections to the electronic energy:
(perhaps to be used in another calculation)
Total thermal correction                  0.00619181 Eh       3.89 kcal/mol
Non-thermal (ZPE) correction              0.06819705 Eh      42.79 kcal/mol
-----------------------------------------------------------------------
Total correction                          0.07438886 Eh      46.68 kcal/mol


--------
ENTHALPY
--------

The enthalpy is H = U + kB*T
                kB is Boltzmann's constant
Total thermal energy              ...   -342.15799522 Eh 
Thermal Enthalpy correction       ...      0.00094421 Eh       0.59 kcal/mol
-----------------------------------------------------------------------
Total Enthalpy                    ...   -342.15705101 Eh


Note: Only C1 symmetry has been detected, increase convergence thresholds 
      if your molecule has a higher symmetry. Symmetry factor of 1.0 is   
      used for the rotational entropy correction. 
 

Note: Rotational entropy computed according to Herzberg 
Infrared and Raman Spectra, Chapter V,1, Van Nostrand Reinhold, 1945 
Point Group:  C1, Symmetry Number:   1  
Rotational constants in cm-1:     0.180281     0.119815     0.072965 

Vibrational entropy computed according to the QRRHO of S. Grimme
Chem.Eur.J. 2012 18 9955 using a reference frequency of 100.0 cm-1


-------
ENTROPY
-------

The entropy contributions are T*S = T*(S(el)+S(vib)+S(rot)+S(trans))
     S(el)   - electronic entropy
     S(vib)  - vibrational entropy
     S(rot)  - rotational entropy
     S(trans)- translational entropy
The entropies will be listed as multiplied by the temperature to get
units of energy

Electronic entropy                ...      0.00103729 Eh      0.65 kcal/mol
Vibrational entropy               ...      0.00551004 Eh      3.46 kcal/mol
Rotational entropy                ...      0.01255712 Eh      7.88 kcal/mol
Translational entropy             ...      0.01869119 Eh     11.73 kcal/mol
-----------------------------------------------------------------------
Final entropy term                ...      0.03779565 Eh     23.72 kcal/mol

In case the symmetry of your molecule has not been determined correctly
or in case you have a reason to use a different symmetry number we print 
out the resulting rotational entropy values for sn=1,12:

 non-linear molecules -----------------------------------
|  sn= 1 | S(rot)=       0.01255712 Eh      7.88 kcal/mol|
|  sn= 2 | S(rot)=       0.01190267 Eh      7.47 kcal/mol|
|  sn= 3 | S(rot)=       0.01151984 Eh      7.23 kcal/mol|
|  sn= 4 | S(rot)=       0.01124821 Eh      7.06 kcal/mol|
|  sn= 5 | S(rot)=       0.01103752 Eh      6.93 kcal/mol|
|  sn= 6 | S(rot)=       0.01086538 Eh      6.82 kcal/mol|
|  sn= 7 | S(rot)=       0.01071983 Eh      6.73 kcal/mol|
|  sn= 8 | S(rot)=       0.01059376 Eh      6.65 kcal/mol|
|  sn= 9 | S(rot)=       0.01048255 Eh      6.58 kcal/mol|
|  sn=10 | S(rot)=       0.01038307 Eh      6.52 kcal/mol|
|  sn=11 | S(rot)=       0.01029308 Eh      6.46 kcal/mol|
|  sn=12 | S(rot)=       0.01021092 Eh      6.41 kcal/mol|
 linear molecules ---------------------------------------
|  Dinfh | S(rot)=       0.00779746 Eh      4.89 kcal/mol|
|  Cinfv | S(rot)=       0.00845191 Eh      5.30 kcal/mol|
 --------------------------------------------------------


-------------------
GIBBS FREE ENERGY
-------------------

The Gibbs free energy is G = H - T*S

Total enthalpy                    ...   -342.15705101 Eh 
Total entropy correction          ...     -0.03779565 Eh    -23.72 kcal/mol
-----------------------------------------------------------------------
Final Gibbs free energy         ...   -342.19484666 Eh

For completeness - the Gibbs free energy minus the electronic energy
G-E(el)                           ...      0.03753742 Eh     23.56 kcal/mol


Maximum memory used throughout the entire PROP-calculation: 31.6 MB

--------------------------------
SUGGESTED CITATIONS FOR THIS RUN
--------------------------------

Below you find a list of papers that are relevant to this ORCA run
We neither can nor want to force you to cite these papers, but we appreciate if you do
You receive ORCA, which is the product of decades of hard work by many enthusiastic individuals, for free
The only thing we kindly ask in return is that you cite our papers,
We deeply appreciate it, if you show your appreciation for ORCA by not just citing the generic ORCA reference.

Please note that relegating all ORCA citations to the supporting information does *not* help us.
SI sections are not indexed - citations you put there will not count into any citation statistics
But we need these citations in order to attract the funding resources that allow us to do what we are doing

Therefore, if you are a happy ORCA user, please consider citing a few of the papers listed below in the main body of your paper

In addition to the list printed below, the program has created the file t1_freq_0_wat.bibtex that contains the list in bibtex format
You can import this file easily into all common literature databanks and citation aid programs


List of essential papers. We consider these as the minimum necessary citations

  1. Neese, F.
     Software update: the ORCA program system, version 6.0
     WIRES Comput. Molec. Sci. 2025 15(1), e70019
     doi.org/10.1002/wcms.7019

List of papers to cite with high priority. The work reported in these papers was absolutely
necessary for this run to complete.
Our perspective: the developers of density functionals and basis sets usually get cited in chemistry papers
Good! But without the algorithms to do something with them, the functionals or basis sets would not do anything.
Hence, in our opinion, the algorithm design and method developments papers are equally worthy of getting cited

  1. Bykov, D.; Petrenko, T.; Izsak, R.; Kossmann, S.; Becker, U.; Valeev, E.; Neese, F.
     Efficient implementation of the analytic second derivatives of Hartree-Fock and hybrid DFT energies: a detailed analysis of different approximations
     Molec. Phys. 2015 113 , 1961-1977
     doi.org/10.1080/00268976.2015.1025114
  2. Lehtola, S.; Steigemann, C.; Oliveira, M.; Marques, M.
     Recent developments in Libxc - A comprehensive library of functionals for density functional theory
     Software X 2018 7 , 
     doi.org/10.1016/j.softx.2017.11.002
  3. Neese, F.
     The SHARK Integral Generation and Digestion System
     J. Comp. Chem. 2022 44(3), 381
     doi.org/10.1002/jcc.26942

List of suggested additional citations. These are papers that are important in the 'surrounding' of 
of this run, or papers that preceded the highly important papers. If you like your results we are grateful for a citation.

  1. Neese, F.
     The ORCA program system
     WIRES Comput. Molec. Sci. 2012 2(1), 73-78
     doi.org/10.1002/wcms.81
  2. Neese, F.
     Software update: the ORCA program system, version 4.0
     WIRES Comput. Molec. Sci. 2018 8(1), 1-6
     doi.org/10.1002/wcms.1327
  3. Neese, F.; Wennmohs, F.; Becker, U.; Riplinger, C.
     The ORCA quantum chemistry program package
     J. Chem. Phys. 2020 152(22), 224108
     doi.org/10.1063/5.0004608
  4. Neese, F.
     Software update: The ORCA program system—Version 5.0
     WIRES Comput. Molec. Sci. 2022 12(1), e1606
     doi.org/10.1002/wcms.1606

List of optional additional citations

  1. Neese, F.
     Approximate second-order SCF convergence for spin unrestricted wavefunctions
     Chem. Phys. Lett. 2000 325(1-3), 93-98
     doi.org/10.1016/s0009-2614(00)00662-x

Timings for individual modules:

Sum of individual times          ...     1640.796 sec (=  27.347 min)
Startup calculation              ...       10.029 sec (=   0.167 min)   0.6 %
SCF iterations                   ...       72.511 sec (=   1.209 min)   4.4 %
Property integrals               ...      154.556 sec (=   2.576 min)   9.4 %
SCF Response                     ...     1264.179 sec (=  21.070 min)  77.0 %
Property calculations            ...      123.585 sec (=   2.060 min)   7.5 %
SCF Gradient evaluation          ...       15.937 sec (=   0.266 min)   1.0 %
                             ****ORCA TERMINATED NORMALLY****
TOTAL RUN TIME: 0 days 0 hours 27 minutes 22 seconds 251 msec
