
                                 *****************
                                 * O   R   C   A *
                                 *****************

                                            #,                                       
                                            ###                                      
                                            ####                                     
                                            #####                                    
                                            ######                                   
                                           ########,                                 
                                     ,,################,,,,,                         
                               ,,#################################,,                 
                          ,,##########################################,,             
                       ,#########################################, ''#####,          
                    ,#############################################,,   '####,        
                  ,##################################################,,,,####,       
                ,###########''''           ''''###############################       
              ,#####''   ,,,,##########,,,,          '''####'''          '####       
            ,##' ,,,,###########################,,,                        '##       
           ' ,,###''''                  '''############,,,                           
         ,,##''                                '''############,,,,        ,,,,,,###''
      ,#''                                            '''#######################'''  
     '                                                          ''''####''''         
             ,#######,   #######,   ,#######,      ##                                
            ,#'     '#,  ##    ##  ,#'     '#,    #''#        ,####,    ,#,          
            ##       ##  ##   ,#'  ##            #'  '#       #'       ,# #          
            ##       ##  #######   ##           ,######,      #####,      #          
            '#,     ,#'  ##    ##  '#,     ,#' ,#      #,     #,   #      #          
             '#######'   ##     ##  '#######'  #'      '#     '####' #    #          



                #########################################################
                #                        -***-                          #
                #          Department of theory and spectroscopy        #
                #                                                       #
                #                      Frank Neese                      #
                #                                                       #
                #     Directorship, Architecture, Infrastructure        #
                #                    SHARK, DRIVERS                     #
                #        Core code/Algorithms in most modules           #
                #                                                       #
                #        Max Planck Institute fuer Kohlenforschung      #
                #                Kaiser Wilhelm Platz 1                 #
                #                 D-45470 Muelheim/Ruhr                 #
                #                      Germany                          #
                #                                                       #
                #                  All rights reserved                  #
                #                        -***-                          #
                #########################################################


                         Program Version 6.1.0  -  RELEASE   -
                                (GIT: $679e74b$)
                          ($2025-06-10 18:02:51 +0200$)


 With contributions from (in alphabetic order):
[Max-Planck-Institut fuer Kohlenforschung]                               
  Daniel Aravena         : Magnetic Suceptibility                        
  Michael Atanasov       : Ab Initio Ligand Field Theory (pilot matlab implementation)
  Alexander A. Auer      : GIAO ZORA, VPT2 properties, NMR spectrum      
  Ute Becker             : All parallelization in ORCA, NUMFREQ, NUMCALC 
  Giovanni Bistoni       : ED, misc. LED, open-shell LED, HFLD           
  Dmytro Bykov           : pre 5.0 version of the SCF Hessian            
  Marcos Casanova-Páez   : Triplet and SCS-CIS(D). UHF-(DLPNO)-IP/EA/STEOM-CCSD. UHF-CVS-IP/STEOM-CCSD   
  Vijay G. Chilkuri      : MRCI spin determinant printing, contributions to CSF-ICE 
  Pauline Colinet        : FMM embedding                                 
  Dipayan Datta          : RHF DLPNO-CCSD density                        
  Achintya Kumar Dutta   : EOM-CC, STEOM-CC                              
  Nicolas Foglia         : Exact transition moments, OPA infrastructure, MCD improvements    
  Dmitry Ganyushin       : Spin-Orbit,Spin-Spin,Magnetic field MRCI      
  Miquel Garcia-Rates    : C-PCM and meta-GGA Hessian, CCSD/C-PCM, Gaussian charge scheme 
  Tiago L. C. Gouveia    : GS-ROHF, GS-ROCIS                             
  Yang Guo               : DLPNO-NEVPT2, F12-NEVPT2, CIM, IAO-localization        
  Andreas Hansen         : Spin unrestricted coupled pair/coupled cluster methods 
  Ingolf Harden          : AUTO-CI MPn and infrastructure                
  Benjamin Helmich-Paris : MC-RPA, TRAH-(SCF,CASSCF), AVAS, COSX integrals, SCF dyn. polar., MC-PDFT, srDFT 
  Lee Huntington         : MR-EOM, pCC                                   
  Robert Izsak           : Overlap fitted RIJCOSX, COSX-SCS-MP3, EOM     
  Riya Kayal             : Wick's Theorem for AUTO-CI, AUTO-CI UHF-CCSDT 
  Emily Kempfer          : AUTO-CI RHF CISDT and CCSDT, approximate NEVPT4
  Christian Kollmar      : KDIIS, OOCD, Brueckner-CCSD(T), CCSD density, CASPT2, CASPT2-K, improved NEVPT2 
  Axel Koslowski         : Symmetry handling                             
  Simone Kossmann        : meta-GGA functionals, TD-DFT gradient, OOMP2, (MP2 Hessian; deprecated post 5.0) 
  Lucas Lang             : DCDCAS, Hyperfine gauge corrections, ICE-SOC+SSC
  Marvin Lechner         : AUTO-CI (C++ implementation), FIC-MRCC        
  Spencer Leger          : CASSCF response                               
  Dagmar Lenk            : GEPOL surface, SMD, ORCA-2-JSON               
  Dimitrios Liakos       : Extrapolation schemes; Compound Job, Property file
  Dimitrios Manganas     : Further ROCIS development; embedding schemes. LFT, Crystal Embedding 
  Dimitrios Pantazis     : SARC Basis sets                               
  Anastasios Papadopoulos: AUTO-CI, single reference methods and gradients 
  Taras Petrenko         : pre 6.0 DFT Hessian and TD-DFT gradient,  ECA, NRVS 
  Petra Pikulova         : Analytic Raman intensities                    
  Peter Pinski           : DLPNO-MP2, DLPNO-MP2 Gradient                 
  Shashank Vittal Rao    : ES-AILFT, MagRelax                            
  Christoph Reimann      : Effective Core Potentials                     
  Marius Retegan         : Local ZFS, SOC                                
  Christoph Riplinger    : Optimizer, TS searches, QM/MM, DLPNO-CCSD(T), (RO)-DLPNO pert. Triples 
  Michael Roemelt        : Original ROCIS implementation, recursive CI coupling coefficients
  Masaaki Saitow         : Open-shell DLPNO-CCSD energy and density      
  Barbara Sandhoefer     : DKH picture change effects                    
  Yorick L. A. Schmerwitz: GMF and freeze-and-release deltaSCF, NEB S-IDPP initial path                    
  Kantharuban Sivalingam : CASSCF convergence/infrastructure, NEVPT2, NEVPT3, NEVPT4(SD), FIC-MRCI and CEPA variants
  Bernardo de Souza      : ESD, SOC TD-DFT                               
  Georgi L. Stoychev     : AutoAux, RI-MP2 NMR, DLPNO-MP2 response, X2C  
  Van Anh Tran           : RI-MP2 g-tensors                              
  Willem Van den Heuvel  : Paramagnetic NMR                              
  Zikuan Wang            : NOTCH, Electric field optimization            
  Frank Wennmohs         : Technical directorship and infrastructure     
  Hang Xu                : AUTO-CI-Response properties                   
                                                                         
[FACCTs GmbH]                                                            
  Markus Bursch, Nicolas Foglia, Miquel Garcia-Rates, Ingolf Harden, Hagen Neugebauer, Anastasios Papadopoulos, 
  Christoph Riplinger, Bernardo de Souza, Georgi L. Stoychev                                                    
                                                                 
  APM, various basis sets, CI-OPT, improved COSX, DLPNO-Multilevel,           
  DOCKER, DRACO, updates on ESD, Fragmentator, GOAT, IRC, LR-CPCM, L-BFGS, MBIS, meta-GGA TD-DFT gradient, ML-optimized integration grids, 
  MM, NACMEs, nearIR, NEB, NEB-TS, NL-DFT gradient (VV10), 2- and 3-layer-ONIOM, interface openCOSMO-RS, QMMM,   
  Crystal-QMMM, RESP, rigid body optimization, SF, symmetry and pop. for TD-DFT, various functionals, SOLVATOR                                   
                                                                         
[Other institutions]                                                     
  V. Asgeirsson          : NEB                                           
  Christoph Bannwarth    : sTDA-DFT, sTD-DFT, PBEh-3c, B97-3c, D3        
  Giovanni Bistoni       : ETS/NOCV, ADLD/ADEX, COVALED                  
  Martin Brehm           : Molecular dynamics                            
  Ronald Cardenas        : ETS/NOCV                                      
  Martina Colucci        : COVALED                                       
  Sebastian Ehlert       : rSCAN, r2SCAN, r2SCAN-3c, D4, dhf basis sets  
  Marvin Friede          : D4 for Fr, Ra, Ac-Lr                          
  Lars Goerigk           : TD-DFT with DH, B97 family of functionals     
  Stefan Grimme          : VdW corrections, initial TS optimization, DFT functionals, gCP, sTDA/sTD-DF 
  Waldemar Hujo          : DFT-NL                                        
  H. Jonsson             : NEB                                           
  Holger Kruse           : gCP                                           
  Marcel Mueller         : wB97X-3c, vDZP basis set                      
  Hagen Neugebauer       : wr2SCAN, Native XTB                           
  Gianluca Regni         : ADLD/ADEX                                     
  Tobias Risthaus        : pre 6.0 range-separated hybrid DFT and stability analysis
  Lukas Wittmann         : regularized MP2, r2SCAN double-hybrids, wr2SCAN        
                                                                         
We gratefully acknowledge several colleagues who have allowed us to      
interface, adapt or use parts of their codes:                            
  Ed Valeev, F. Pavosevic, A. Kumar             : LibInt (2-el integral package), F12 methods 
  Garnet Chan, S. Sharma, J. Yang, R. Olivares  : DMRG                   
  Ulf Ekstrom                                   : XCFun DFT Library      
  Mihaly Kallay                                 : mrcc  (arbitrary order and MRCC methods)
  Frank Weinhold                                : gennbo (NPA and NBO analysis)           
  Simon Mueller                                 : openCOSMO-RS                            
  Christopher J. Cramer and Donald G. Truhlar   : smd solvation model                     
  S Lehtola, MJT Oliveira, MAL Marques          : LibXC Library                           
  Liviu Ungur et al                             : ANISO software                          


 Your calculation uses the libint2 library for the computation of 2-el integrals
 For citations please refer to: http://libint.valeyev.net

 Your ORCA version has been built with support for libXC version: 7.0.0
 For citations please refer to: https://libxc.gitlab.io

 This ORCA versions uses:
   CBLAS   interface :  Fast vector & matrix operations
   LAPACKE interface :  Fast linear algebra routines
   SCALAPACK package :  Parallel linear algebra routines
   Shared memory     :  Shared parallel matrices
   BLAS/LAPACK       :  OpenBLAS 0.3.29  USE64BITINT DYNAMIC_ARCH NO_AFFINITY SkylakeX SINGLE_THREADED
        Core in use  :  SkylakeX
   Copyright (c) 2011-2014, The OpenBLAS Project


  ***********************************
  * Starting time: Wed Jan 28 11:50:51 2026
  * Host name:     bp1-compute095
  * Process ID:    612289
  * Working dir.:  /user/work/kp22738/Diss/Orca/pyruvic_anion/dyson_orbitals/2_wat/15365074_d0_freq_2_wat
  ***********************************

NOTE: MaxCore=8000 MB was set to SCF,MP2,MDCI,CIPSI,MRCI,RASCI and CIS
      => If you want to overwrite this, your respective input block should be placed after the MaxCore statement
Using LibXC functional ID 471 : wB97X-D range-separated functional
[ 1]  J.-D. Chai and M. Head-Gordon.,  Phys. Chem. Chem. Phys. 10, 6615-6620 (2008)
Using LibXC functional ID 471 : wB97X-D range-separated functional
[ 1]  J.-D. Chai and M. Head-Gordon.,  Phys. Chem. Chem. Phys. 10, 6615-6620 (2008)
Your calculation utilizes LibXC
by S. Lehtola, C. Steigemann, M. J. T. Oliveira & M. A. L. Marques
Please cite in your paper:
Lehtola, S.; Steigemann, C.; Oliveira, M.J.T.; Marques, M. A. L. Software X, 7, (2018), 1.
   

================================================================================

----- Orbital basis set information -----
Your calculation utilizes the basis: aug-cc-pVDZ 
    H, B-Ne : Obtained from the ccRepo (grant-hill.group.shef.ac.uk/ccrepo) Feb. 2017
              R. A. Kendall, T. H. Dunning, Jr., R. J. Harrison, J. Chem. Phys. 96, 6796 (1992)
         He : Obtained from the ccRepo (grant-hill.group.shef.ac.uk/ccrepo) Feb. 2017
              D. E. Woon, T. H. Dunning, Jr., J. Chem. Phys. 100, 2975 (1994)
  Li-Be, Na : Obtained from the ccRepo (grant-hill.group.shef.ac.uk/ccrepo) Feb. 2017
              B. P. Prascher, D. E. Woon, K. A. Peterson, T. H. Dunning, Jr., A. K. Wilson, Theor. Chem. Acc. 128, 69 (2011)
         Mg : Obtained from the Peterson Research Group Website (tyr0.chem.wsu.edu/~kipeters) Feb. 2017
              B. P. Prascher, D. E. Woon, K. A. Peterson, T. H. Dunning, Jr., A. K. Wilson, Theor. Chem. Acc. 128, 69 (2011)
      Al-Ar : Obtained from the ccRepo (grant-hill.group.shef.ac.uk/ccrepo) Feb. 2017
              D. E. Woon, T. H. Dunning, Jr., J. Chem. Phys. 98, 1358 (1993)
      Sc-Zn : Obtained from the ccRepo (grant-hill.group.shef.ac.uk/ccrepo) Feb. 2017
              N. B. Balabanov, K. A. Peterson, J. Chem. Phys. 123, 064107 (2005)
              N. B. Balabanov, K. A. Peterson, J. Chem. Phys. 125, 074110 (2006)
      Ga-Kr : Obtained from the ccRepo (grant-hill.group.shef.ac.uk/ccrepo) Feb. 2017
              A. K. Wilson, D. E. Woon, K. A. Peterson, T. H. Dunning, Jr., J. Chem. Phys. 110, 7667 (1999)

================================================================================
                                        WARNINGS
                       Please study these warnings very carefully!
================================================================================


WARNING: your system is open-shell and RHF/RKS was chosen
  ===> : WILL SWITCH to UHF/UKS


================================================================================
                                       INPUT FILE
================================================================================
NAME = d0_freq_2_wat.inp
|  1> ! aug-cc-pVDZ TightSCF DEFGRID3 Engrad ANFREQ
|  2> 
|  3> %PAL NPROCS 8 END
|  4> 
|  5> %maxcore 8000
|  6> 
|  7> %method
|  8> method dft
|  9> functional hyb_gga_xc_wb97x_d
| 10> end
| 11> 
| 12> * xyz -1 2
| 13>   C     -0.654789   -0.185921   -0.002844
| 14>   C      0.709878    0.264773    0.002326
| 15>   C     -1.785838    0.801672    0.002026
| 16>   H     -2.431910    0.645440    0.880861
| 17>   H     -2.420729    0.664561   -0.888077
| 18>   H     -1.398583    1.826979    0.015246
| 19>   O     -0.869959   -1.461628   -0.014994
| 20>   O      1.127848    1.437660    0.015865
| 21>   O      1.605790   -0.771938   -0.008399
| 22>   H      1.014909   -1.552422   -0.019915
| 23>   O      3.904848    1.364058    0.046850
| 24>   H      3.921005    0.403334    0.030279
| 25>   H      2.937417    1.529562    0.036214
| 26>   O     -3.297429   -2.619971    0.291398
| 27>   H     -3.216720   -2.894342    1.206550
| 28>   H     -2.430142   -2.177490    0.113337
| 29> * 
| 30> 
| 31>                          ****END OF INPUT****
================================================================================

                     *******************************
                     * Energy+Gradient Calculation *
                     *******************************

---------------------------------
CARTESIAN COORDINATES (ANGSTROEM)
---------------------------------
  C     -0.654789   -0.185921   -0.002844
  C      0.709878    0.264773    0.002326
  C     -1.785838    0.801672    0.002026
  H     -2.431910    0.645440    0.880861
  H     -2.420729    0.664561   -0.888077
  H     -1.398583    1.826979    0.015246
  O     -0.869959   -1.461628   -0.014994
  O      1.127848    1.437660    0.015865
  O      1.605790   -0.771938   -0.008399
  H      1.014909   -1.552422   -0.019915
  O      3.904848    1.364058    0.046850
  H      3.921005    0.403334    0.030279
  H      2.937417    1.529562    0.036214
  O     -3.297429   -2.619971    0.291398
  H     -3.216720   -2.894342    1.206550
  H     -2.430142   -2.177490    0.113337

----------------------------
CARTESIAN COORDINATES (A.U.)
----------------------------
  NO LB      ZA    FRAG     MASS         X           Y           Z
   0 C     6.0000    0    12.011   -1.237372   -0.351340   -0.005374
   1 C     6.0000    0    12.011    1.341475    0.500348    0.004396
   2 C     6.0000    0    12.011   -3.374745    1.514941    0.003829
   3 H     1.0000    0     1.008   -4.595644    1.219705    1.664586
   4 H     1.0000    0     1.008   -4.574515    1.255838   -1.678222
   5 H     1.0000    0     1.008   -2.642939    3.452490    0.028811
   6 O     8.0000    0    15.999   -1.643984   -2.762077   -0.028335
   7 O     8.0000    0    15.999    2.131324    2.716784    0.029981
   8 O     8.0000    0    15.999    3.034503   -1.458751   -0.015872
   9 H     1.0000    0     1.008    1.917900   -2.933652   -0.037634
  10 O     8.0000    0    15.999    7.379093    2.577696    0.088534
  11 H     1.0000    0     1.008    7.409626    0.762191    0.057219
  12 H     1.0000    0     1.008    5.550914    2.890453    0.068435
  13 O     8.0000    0    15.999   -6.231238   -4.951028    0.550662
  14 H     1.0000    0     1.008   -6.078720   -5.469514    2.280049
  15 H     1.0000    0     1.008   -4.592303   -4.114860    0.214176

--------------------------------
INTERNAL COORDINATES (ANGSTROEM)
--------------------------------
 C      0   0   0     0.000000000000     0.00000000     0.00000000
 C      1   0   0     1.437173556473     0.00000000     0.00000000
 C      1   2   0     1.501544368625   120.59619688     0.00000000
 H      3   1   2     1.101893109259   110.54780233   238.62045386
 H      3   1   2     1.101893533337   110.45990442   120.64909578
 H      3   1   2     1.096081952992   110.43568599   359.68109296
 O      1   2   3     1.293782864800   117.85075955   179.83810079
 O      2   1   3     1.245209275660   127.89023674     0.29123319
 O      2   1   3     1.370234664169   112.55422657   180.23345231
 H      9   2   1     0.978993487554   102.04275993     0.18404395
 O      8   2   1     2.778148002650   108.10085185   179.30765551
 H     11   8   2     0.961002731976    92.47014943     0.57001846
 H     11   8   2     0.981543396021     8.18924455   179.63525502
 O      7   1   2     2.707073173044   124.74931678   171.75617655
 H     14   7   1     0.958799547051    98.91642801   257.84925167
 H     14   7   1     0.989788813561     4.14730856    74.03584552

---------------------------
INTERNAL COORDINATES (A.U.)
---------------------------
 C      0   0   0     0.000000000000     0.00000000     0.00000000
 C      1   0   0     2.715864428647     0.00000000     0.00000000
 C      1   2   0     2.837507634633   120.59619688     0.00000000
 H      3   1   2     2.082276205355   110.54780233   238.62045386
 H      3   1   2     2.082277006747   110.45990442   120.64909578
 H      3   1   2     2.071294711488   110.43568599   359.68109296
 O      1   2   3     2.444895291231   117.85075955   179.83810079
 O      2   1   3     2.353104510416   127.89023674     0.29123319
 O      2   1   3     2.589368254485   112.55422657   180.23345231
 H      9   2   1     1.850029578369   102.04275993     0.18404395
 O      8   2   1     5.249938884509   108.10085185   179.30765551
 H     11   8   2     1.816031977385    92.47014943     0.57001846
 H     11   8   2     1.854848207039     8.18924455   179.63525502
 O      7   1   2     5.115626921538   124.74931678   171.75617655
 H     14   7   1     1.811868561255    98.91642801   257.84925167
 H     14   7   1     1.870429788050     4.14730856    74.03584552

---------------------
BASIS SET INFORMATION
---------------------
There are 3 groups of distinct atoms

 Group   1 Type C   : 18s5p2d contracted to 4s3p2d pattern {8811/311/11}
 Group   2 Type H   : 5s2p contracted to 3s2p pattern {311/11}
 Group   3 Type O   : 18s5p2d contracted to 4s3p2d pattern {8811/311/11}

Atom   0C    basis set group =>   1
Atom   1C    basis set group =>   1
Atom   2C    basis set group =>   1
Atom   3H    basis set group =>   2
Atom   4H    basis set group =>   2
Atom   5H    basis set group =>   2
Atom   6O    basis set group =>   3
Atom   7O    basis set group =>   3
Atom   8O    basis set group =>   3
Atom   9H    basis set group =>   2
Atom  10O    basis set group =>   3
Atom  11H    basis set group =>   2
Atom  12H    basis set group =>   2
Atom  13O    basis set group =>   3
Atom  14H    basis set group =>   2
Atom  15H    basis set group =>   2


           ************************************************************
           *        Program running with 8 parallel MPI-processes     *
           *              working on a common directory               *
           ************************************************************
------------------------------------------------------------------------------
                             ORCA STARTUP CALCULATIONS
------------------------------------------------------------------------------
------------------------------------------------------------------------------
                   ___                                                        
                  /   \      - P O W E R E D   B Y -                         
                 /     \                                                     
                 |  |  |   _    _      __       _____    __    __             
                 |  |  |  | |  | |    /  \     |  _  \  |  |  /  |          
                  \  \/   | |  | |   /    \    | | | |  |  | /  /          
                 / \  \   | |__| |  /  /\  \   | |_| |  |  |/  /          
                |  |  |   |  __  | /  /__\  \  |    /   |      \           
                |  |  |   | |  | | |   __   |  |    \   |  |\   \          
                \     /   | |  | | |  |  |  |  | |\  \  |  | \   \       
                 \___/    |_|  |_| |__|  |__|  |_| \__\ |__|  \__/        
                                                                              
                      - O R C A' S   B I G   F R I E N D -                    
                                      &                                       
                       - I N T E G R A L  F E E D E R -                       
                                                                              
 v1 FN, 2020, v2 2021, v3 2022-2024                                           
------------------------------------------------------------------------------


----------------------
SHARK INTEGRAL PACKAGE
----------------------

Number of atoms                             ...     16
Number of basis functions                   ...    304
Number of shells                            ...    160
Maximum angular momentum                    ...      2
Integral batch strategy                     ... SHARK/LIBINT Hybrid
RI-J (if used) integral strategy            ... SPLIT-RIJ (Revised 2003 algorithm where possible)
Printlevel                                  ...      1
Contraction scheme used                     ... PARTIAL GENERAL contraction
Prescreening option                         ... SCHWARTZ
   Thresh                                   ... 2.500e-11
   Tcut                                     ... 2.500e-12
   Tpresel                                  ... 2.500e-12 
Coulomb Range Separation                    ... NOT USED
Exchange Range Separation                   ... Long Range
   Mu parameter                             ... 2.000e-01
   Scaling (regular/separated)              ... 2.220e-01 7.780e-01
Robust (split-)RI terms used:
  metric    (central integrals)             ... YES
  density   (r.h.s.  integrals)             ... YES
  potential (l.h.s.  integrals)             ... YES
Multipole approximations                    ... NOT USED
Finite Nucleus Model                        ... NOT USED
CABS basis                                  ... NOT available
Auxiliary Coulomb fitting basis             ... NOT available
Auxiliary J/K fitting basis                 ... NOT available
Auxiliary Correlation fitting basis         ... NOT available
Auxiliary 'external' fitting basis          ... NOT available

Checking pre-screening integrals            ... done (  0.0 sec) Dimension = 160
Save PGC pre-screening integrals            ... done (  0.0 sec) Dimension = 160
Calculate PGC overlap integrals             ... done (  0.1 sec) Dimension = 112
Calculating pre-screening integrals (ORCA)  ... done (  0.1 sec) Dimension = 112
Shell pair information
Shell pair cut-off parameter TPreSel        ...   2.5e-12
Total number of shell pairs                 ...     12880
Shell pairs after pre-screening             ...     10089
Total number of primitive shell pairs       ...     18576
Primitive shell pairs kept                  ...     13235
          la=0 lb=0:   3644 shell pairs
          la=1 lb=0:   3572 shell pairs
          la=1 lb=1:    781 shell pairs
          la=2 lb=0:   1368 shell pairs
          la=2 lb=1:    598 shell pairs
          la=2 lb=2:    126 shell pairs

Checking whether 4 symmetric matrices of dimension 304 fit in memory
:Max Core in MB      =   8000.00
 MB in use           =     12.29
 MB left             =   7987.71
 MB needed           =      1.41
 Data fit in memory  = YES
Calculating Nuclear repulsion               ... done (  0.0 sec) ENN=    378.456814164708 Eh

Diagonalization of the overlap matrix:
Smallest eigenvalue                        ... 1.345e-05
Time for diagonalization                   ...    0.011 sec
Threshold for overlap eigenvalues          ... 1.000e-07
Number of eigenvalues below threshold      ... 0
Time for construction of square roots      ...    0.005 sec
Total time needed                          ...    0.043 sec

-------------------
DFT GRID GENERATION
-------------------

General Integration Accuracy     IntAcc      ... 4.959
Radial Grid Type                 RadialGrid  ... OptM3 with GC (2021)
Angular Grid (max. ang.)         AngularGrid ... 6 (Lebedev-590)
Angular grid pruning method      GridPruning ... 4 (adaptive)
Weight generation scheme         WeightScheme... mBecke (2022)
Basis function cutoff            BFCut       ... 1.0000e-11
Integration weight cutoff        WCut        ... 1.0000e-14
Partially contracted basis set               ... off
Rotationally invariant grid construction     ... off
Angular grids for H and He will be reduced by one unit
Diffuse basis detected: some atoms will have their outermost
                        angular grid increased by 1.

Total number of grid points                  ...   196742
Total number of batches                      ...     3083
Average number of points per batch           ...       63
Average number of grid points per atom       ...    12296

---------------------
SHARK GRID GENERATION
---------------------

General Integration Accuracy     IntAcc      ... 4.959
Radial Grid Type                 RadialGrid  ... OptM3 with GC (2021)
Angular Grid (max. ang.)         AngularGrid ... 6 (Lebedev-590)
Angular grid pruning method      GridPruning ... 4 (adaptive)
Weight generation scheme         WeightScheme... mBecke (2022)
Basis function cutoff            BFCut       ... 1.0000e-11
Integration weight cutoff        WCut        ... 1.0000e-14
Partially contracted basis set               ... off
Rotationally invariant grid construction     ... off
Angular grids for H and He will be reduced by one unit
Diffuse basis detected: some atoms will have their outermost
                        angular grid increased by 1.
Steep s-basis detected: some atoms will have their radial
                        grid points doubled.

Total number of grid points                  ...   315616
Total number of batches                      ...     4939
Average number of points per batch           ...       63
Average number of grid points per atom       ...    19726
Grids setup in  10.2 sec
Initializing property integral containers    ... done (  0.0 sec)

SHARK setup successfully completed in  11.5 seconds

Maximum memory used throughout the entire STARTUP-calculation: 72.9 MB


           ************************************************************
           *        Program running with 8 parallel MPI-processes     *
           *              working on a common directory               *
           ************************************************************
-------------------------------------------------------------------------------
                                 ORCA GUESS
                   Start orbitals & Density for SCF / CASSCF
-------------------------------------------------------------------------------

------------
SCF SETTINGS
------------
Hamiltonian:
 Density Functional     Method          .... DFT(GTOs)
  Functional kind                       .... Exchange-Correlation
  Functional name                       .... wB97X-D range-separated functional
  Functional family                     .... Hybrid GGA
  Functional refs                              
    [ 0] J.-D. Chai and M. Head-Gordon.,  Phys. Chem. Chem. Phys. 10, 6615-6620 (2008), doi: 10.1039/B810189B
  Fraction of HF Exchange (short range) .... 0.2220
  Fraction of HF Exchange ( int64 range )  .... 1.0000
  Range separation parameter mu         .... 0.2000
  Functional external parameters        .... 18
    Parameter  0 _cx0       =  7.779640e-01 : u^0 coefficient for exchange
    Parameter  1 _cx1       =  6.611600e-01 : u^1 coefficient for exchange
    Parameter  2 _cx2       =  5.745410e-01 : u^2 coefficient for exchange
    Parameter  3 _cx3       = -5.256710e+00 : u^3 coefficient for exchange
    Parameter  4 _cx4       =  1.163860e+01 : u^4 coefficient for exchange
    Parameter  5 _css0      =  1.000000e+00 : u^0 coefficient for same-spin correlation
    Parameter  6 _css1      = -6.905390e+00 : u^1 coefficient for same-spin correlation
    Parameter  7 _css2      =  3.133430e+01 : u^2 coefficient for same-spin correlation
    Parameter  8 _css3      = -5.105330e+01 : u^3 coefficient for same-spin correlation
    Parameter  9 _css4      =  2.644230e+01 : u^4 coefficient for same-spin correlation
    Parameter 10 _cos0      =  1.000000e+00 : u^0 coefficient for opposite-spin correlation
    Parameter 11 _cos1      =  1.794130e+00 : u^1 coefficient for opposite-spin correlation
    Parameter 12 _cos2      = -1.204770e+01 : u^2 coefficient for opposite-spin correlation
    Parameter 13 _cos3      =  1.408470e+01 : u^3 coefficient for opposite-spin correlation
    Parameter 14 _cos4      = -8.508090e+00 : u^4 coefficient for opposite-spin correlation
    Parameter 15 _alpha     =  1.000000e+00 : fraction of HF exchange
    Parameter 16 _beta      = -7.779640e-01 : fraction of short-range exchange
    Parameter 17 _omega     =  2.000000e-01 : range-separation constant
 Long-range corrected/Screened/Range-Separated Hybrid DFT is turned on
   Amount of maximum screened exact exchange              ....  0.777964
   Range separation parameter mu (erf(mu*r12)/r12)        ....  0.200000


General Settings:
 Integral files         IntName         .... d0_freq_2_wat
 Hartree-Fock type      HFTyp           .... UHF
 Total Charge           Charge          ....   -1
 Multiplicity           Mult            ....    2
 Number of Electrons    NEL             ....   67
 Basis Dimension        Dim             ....  256
 Nuclear Repulsion      ENuc            ....    378.4568141647 Eh

Convergence Acceleration:
 AO-DIIS                CNVDIIS         .... on
   Start iteration      DIISMaxIt       ....    12
   Startup error        DIISStart       ....  0.200000
   # of expansion vecs  DIISMaxEq       ....     5
   Bias factor          DIISBfac        ....   1.050
   Max. coefficient     DIISMaxC        ....  10.000
 MO-DIIS                CNVKDIIS        .... off
 Trust-Rad. Augm. Hess. CNVTRAH         .... auto
   Auto Start mean grad. ratio tolernc. ....  1.125000
   Auto Start start iteration           ....    50
   Auto Start num. interpolation iter.  ....    10
   Max. Number of Micro iterations      ....    24
   Max. Number of Macro iterations      .... Maxiter - #DIIS iter
   Number of Davidson start vectors     ....     2
   Converg. threshold    (grad. norm)   ....   1.000e-05
   Grad. Scal. Fac. for Micro threshold ....   0.100
   Minimum threshold for Micro iter.    ....   1.000e-02
   NR start threshold (gradient norm)   ....   1.000e-04
   Initial trust radius                 ....   0.400
   Minimum AH scaling param. (alpha)    ....   1.000
   Maximum AH scaling param. (alpha)    .... 1000.000
   Quad. conv. algorithm                .... NR
   White noise on init. David. guess    .... on
   Maximum white noise                  ....   0.010
   Pseudo random numbers                .... off
   Inactive MOs                         .... canonical
   Orbital update algorithm             .... Taylor
   Preconditioner                       .... Diag
   Full preconditioner red. dimension   ....   250
 SOSCF                 CNVSOSCF           .... on
   Start iteration     SOSCFMaxIt         ....   150
   Startup grad/error  SOSCFStart         ....  0.003300
   Hessian update      SOSCFHessUp        .... L-BFGS
   Autom. constraints  SOSCFAutoConstrain .... off
 Level Shifting         CNVShift        .... on
   Level shift para.    LevelShift      ....    0.2500
   Turn off err/grad.   ShiftErr        ....    0.0010
 Zerner damping         CNVZerner       .... off
 Static damping         CNVDamp         .... on
   Fraction old density DampFac         ....    0.7000
   Max. Damping (<1)    DampMax         ....    0.9800
   Min. Damping (>=0)   DampMin         ....    0.0000
   Turn off err/grad.   DampErr         ....    0.1000

SCF Procedure:
 Maximum # iterations   MaxIter         ....   125
 SCF integral mode      SCFMode         .... Direct
   Integral package                     .... SHARK and LIBINT hybrid scheme
 Reset frequency        DirectResetFreq ....    20
 Integral Threshold     Thresh          ....  2.500e-11 Eh
 Primitive CutOff       TCut            ....  2.500e-12 Eh

Convergence Tolerance:
 Convergence Check Mode ConvCheckMode   .... Total+1el-Energy
 Convergence forced     ConvForced      .... 0
 Energy Change          TolE            ....  1.000e-08 Eh
 1-El. energy change                    ....  1.000e-05 Eh
 Orbital Gradient       TolG            ....  1.000e-05
 Orbital Rotation angle TolX            ....  1.000e-05
 DIIS Error             TolErr          ....  5.000e-07

------------------------------
INITIAL GUESS: MODEL POTENTIAL
------------------------------
Loading Hartree-Fock densities                     ... done
Calculating cut-offs                               ... done
Initializing the effective Hamiltonian             ... done
Setting up the integral package (SHARK)            ... done
Starting the Coulomb interaction                   ... done (   0.3 sec)
Making the grid                                    ... done (   0.2 sec)
Mapping shells                                     ... done
Starting the XC term evaluation                    ... done (   0.1 sec)
  promolecular density results
     # of electrons  =     65.994447606
     EX+EC           =    -42.402848093
Transforming the Hamiltonian                       ... done (   0.0 sec)
Diagonalizing the Hamiltonian                      ... done (   0.0 sec)
Back transforming the eigenvectors                 ... done (   0.0 sec)
Now organizing SCF variables                       ... done
                      ------------------
                      INITIAL GUESS DONE (   0.7 sec)
                      ------------------
             **** ENERGY FILE WAS UPDATED (d0_freq_2_wat.en.tmp) ****
Finished Guess after   1.2 sec
Maximum memory used throughout the entire GUESS-calculation: 15.9 MB


           ************************************************************
           *        Program running with 8 parallel MPI-processes     *
           *              working on a common directory               *
           ************************************************************

-------------------------------------------------------------------------------------------
                                      ORCA LEAN-SCF
                              memory conserving SCF solver
-------------------------------------------------------------------------------------------

----------------------------------------D-I-I-S--------------------------------------------
Iteration    Energy (Eh)           Delta-E    RMSDP     MaxDP     DIISErr   Damp  Time(sec)
-------------------------------------------------------------------------------------------
               ***  Starting incremental Fock matrix formation  ***
    1    -495.2112044781264899     0.00e+00  3.47e-03  7.77e-02  4.40e-02  0.700  13.7
    2    -495.2298726277486480    -1.87e-02  2.69e-03  6.04e-02  3.04e-02  0.700  12.1
                               ***Turning on AO-DIIS***
    3    -495.2402881096404030    -1.04e-02  1.70e-03  3.02e-02  2.09e-02  0.700  11.9
    4    -495.2470040500857635    -6.72e-03  4.03e-03  6.47e-02  1.46e-02  0.000  11.7
                              *** Initializing SOSCF ***
---------------------------------------S-O-S-C-F--------------------------------------
Iteration    Energy (Eh)           Delta-E    RMSDP     MaxDP     MaxGrad    Time(sec)
--------------------------------------------------------------------------------------
    5    -495.2630485588653642    -1.60e-02  4.39e-04  5.59e-03  2.43e-03    12.3
               *** Restarting incremental Fock matrix formation ***
    6    -495.2632345801352471    -1.86e-04  4.48e-04  8.25e-03  9.99e-04    13.0
    7    -495.2632973547425195    -6.28e-05  4.41e-04  8.56e-03  6.12e-04    11.0
    8    -495.2633125701050290    -1.52e-05  8.09e-05  1.15e-03  5.43e-04    10.5
    9    -495.2633189338146735    -6.36e-06  5.82e-05  1.03e-03  1.71e-04    10.0
   10    -495.2633195666313100    -6.33e-07  1.59e-05  3.10e-04  7.98e-05    10.0
   11    -495.2633198424672969    -2.76e-07  2.37e-05  7.72e-04  3.03e-05     9.3
   12    -495.2633198842763136    -4.18e-08  1.24e-05  3.01e-04  1.67e-05     9.4
   13    -495.2633198981084774    -1.38e-08  2.28e-05  7.61e-04  6.67e-06     8.9
   14    -495.2633198994003010    -1.29e-09  7.55e-06  1.79e-04  2.32e-06     8.8
                 **** Energy Check signals convergence ****

               *****************************************************
               *                     SUCCESS                       *
               *           SCF CONVERGED AFTER  14 CYCLES          *
               *****************************************************

             **** ENERGY FILE WAS UPDATED (d0_freq_2_wat.en.tmp) ****

----------------
TOTAL SCF ENERGY
----------------

Total Energy       :       -495.26331989987949 Eh          -13476.80008 eV

Components:
Nuclear Repulsion  :        378.45681416470819 Eh           10298.33347 eV
Electronic Energy  :       -873.72013406458768 Eh          -23775.13355 eV
One Electron Energy:      -1441.06676286618881 Eh          -39213.42019 eV
Two Electron Energy:        567.34662880160113 Eh           15438.28664 eV

Virial components:
Potential Energy   :       -987.60349716783469 Eh          -26874.05741 eV
Kinetic Energy     :        492.34017726795520 Eh           13397.25733 eV
Virial Ratio       :          2.00593724170175

DFT components:
N(Alpha)           :       34.000032369089 electrons
N(Beta)            :       33.000080523635 electrons
N(Total)           :       67.000112892725 electrons
E(XC)              :      -43.352798414935 Eh       

---------------
SCF CONVERGENCE
---------------

  Last Energy change         ...    1.2918e-09  Tolerance :   1.0000e-08
  Last MAX-Density change    ...    1.7900e-04  Tolerance :   1.0000e-07
  Last RMS-Density change    ...    7.5515e-06  Tolerance :   5.0000e-09
  Last DIIS Error            ...    2.4293e-03  Tolerance :   5.0000e-07
  Last Orbital Gradient      ...    2.3192e-06  Tolerance :   1.0000e-05
  Last Orbital Rotation      ...    5.2079e-06  Tolerance :   1.0000e-05


----------------------
UHF SPIN CONTAMINATION
----------------------

Warning: in a DFT calculation there is little theoretical justification to 
         calculate <S**2> as in Hartree-Fock theory. We will do it anyways
         but you should keep in mind that the values have only limited relevance

Expectation value of <S**2>     :     0.754942
Ideal value S*(S+1) for S=0.5   :     0.750000
Deviation                       :     0.004942

----------------
ORBITAL ENERGIES
----------------
                 SPIN UP ORBITALS
  NO   OCC          E(Eh)            E(eV) 
   0   1.0000     -19.149588      -521.0868 
   1   1.0000     -19.118661      -520.2452 
   2   1.0000     -19.108204      -519.9607 
   3   1.0000     -19.095456      -519.6138 
   4   1.0000     -19.094560      -519.5894 
   5   1.0000     -10.253225      -279.0044 
   6   1.0000     -10.199436      -277.5408 
   7   1.0000     -10.158827      -276.4357 
   8   1.0000      -1.042930       -28.3796 
   9   1.0000      -0.965274       -26.2664 
  10   1.0000      -0.957251       -26.0481 
  11   1.0000      -0.947812       -25.7913 
  12   1.0000      -0.945087       -25.7171 
  13   1.0000      -0.704659       -19.1747 
  14   1.0000      -0.608279       -16.5521 
  15   1.0000      -0.518229       -14.1017 
  16   1.0000      -0.465680       -12.6718 
  17   1.0000      -0.450972       -12.2716 
  18   1.0000      -0.435991       -11.8639 
  19   1.0000      -0.402901       -10.9635 
  20   1.0000      -0.398240       -10.8367 
  21   1.0000      -0.368687       -10.0325 
  22   1.0000      -0.356377        -9.6975 
  23   1.0000      -0.348932        -9.4949 
  24   1.0000      -0.328236        -8.9317 
  25   1.0000      -0.319218        -8.6864 
  26   1.0000      -0.308128        -8.3846 
  27   1.0000      -0.287354        -7.8193 
  28   1.0000      -0.257673        -7.0116 
  29   1.0000      -0.253273        -6.8919 
  30   1.0000      -0.241808        -6.5799 
  31   1.0000      -0.237258        -6.4561 
  32   1.0000      -0.188129        -5.1192 
  33   1.0000      -0.084895        -2.3101 
  34   0.0000       0.130857         3.5608 
  35   0.0000       0.141994         3.8638 
  36   0.0000       0.147706         4.0193 
  37   0.0000       0.154758         4.2112 
  38   0.0000       0.162922         4.4333 
  39   0.0000       0.170267         4.6332 
  40   0.0000       0.181510         4.9391 
  41   0.0000       0.196812         5.3555 
  42   0.0000       0.212771         5.7898 
  43   0.0000       0.235480         6.4077 
  44   0.0000       0.238704         6.4955 

                 SPIN DOWN ORBITALS
  NO   OCC          E(Eh)            E(eV) 
   0   1.0000     -19.148845      -521.0666 
   1   1.0000     -19.118676      -520.2456 
   2   1.0000     -19.108208      -519.9608 
   3   1.0000     -19.090913      -519.4901 
   4   1.0000     -19.087906      -519.4083 
   5   1.0000     -10.251750      -278.9643 
   6   1.0000     -10.194390      -277.4035 
   7   1.0000     -10.159309      -276.4489 
   8   1.0000      -1.038110       -28.2484 
   9   1.0000      -0.960315       -26.1315 
  10   1.0000      -0.953036       -25.9334 
  11   1.0000      -0.944133       -25.6912 
  12   1.0000      -0.934743       -25.4357 
  13   1.0000      -0.695973       -18.9384 
  14   1.0000      -0.593345       -16.1458 
  15   1.0000      -0.515271       -14.0212 
  16   1.0000      -0.464822       -12.6484 
  17   1.0000      -0.450377       -12.2554 
  18   1.0000      -0.429056       -11.6752 
  19   1.0000      -0.392173       -10.6716 
  20   1.0000      -0.381962       -10.3937 
  21   1.0000      -0.365214        -9.9380 
  22   1.0000      -0.347962        -9.4685 
  23   1.0000      -0.346541        -9.4299 
  24   1.0000      -0.327376        -8.9084 
  25   1.0000      -0.315970        -8.5980 
  26   1.0000      -0.304305        -8.2806 
  27   1.0000      -0.253393        -6.8952 
  28   1.0000      -0.247083        -6.7235 
  29   1.0000      -0.242810        -6.6072 
  30   1.0000      -0.233099        -6.3429 
  31   1.0000      -0.231188        -6.2909 
  32   1.0000      -0.180825        -4.9205 
  33   0.0000       0.134167         3.6509 
  34   0.0000       0.145366         3.9556 
  35   0.0000       0.148156         4.0315 
  36   0.0000       0.155752         4.2382 
  37   0.0000       0.164024         4.4633 
  38   0.0000       0.167496         4.5578 
  39   0.0000       0.171762         4.6739 
  40   0.0000       0.183148         4.9837 
  41   0.0000       0.198723         5.4075 
  42   0.0000       0.214783         5.8445 
  43   0.0000       0.237275         6.4566 
*Only the first 10 virtual orbitals were printed.

                    ********************************
                    * MULLIKEN POPULATION ANALYSIS *
                    ********************************

--------------------------------------------
MULLIKEN ATOMIC CHARGES AND SPIN POPULATIONS
--------------------------------------------
   0 C :    0.111437    0.454552
   1 C :    0.897566    0.080565
   2 C :    0.618389   -0.048713
   3 H :   -0.102049    0.017582
   4 H :   -0.084962    0.017677
   5 H :   -0.301299   -0.000103
   6 O :   -1.000150    0.271752
   7 O :   -0.731602    0.184225
   8 O :   -0.579930    0.028210
   9 H :    0.177957   -0.001240
  10 O :   -0.353647    0.000207
  11 H :    0.112777   -0.000325
  12 H :    0.215419   -0.002306
  13 O :   -0.310193   -0.000138
  14 H :    0.065513    0.000033
  15 H :    0.264774   -0.001978
Sum of atomic charges         :   -1.0000000
Sum of atomic spin populations:    1.0000000

-----------------------------------------------------
MULLIKEN REDUCED ORBITAL CHARGES AND SPIN POPULATIONS
-----------------------------------------------------
CHARGE
  0 C s       :     3.099351  s :     3.099351
      pz      :     0.949409  p :     2.406798
      px      :     0.706650
      py      :     0.750739
      dz2     :     0.013615  d :     0.382414
      dxz     :     0.076879
      dyz     :     0.040483
      dx2y2   :     0.169908
      dxy     :     0.081529

  1 C s       :     3.048025  s :     3.048025
      pz      :     0.801824  p :     1.877185
      px      :     0.493391
      py      :     0.581970
      dz2     :     0.000470  d :     0.177223
      dxz     :     0.036121
      dyz     :     0.055979
      dx2y2   :     0.089285
      dxy     :    -0.004632

  2 C s       :     2.967034  s :     2.967034
      pz      :     0.788741  p :     2.446114
      px      :     1.005069
      py      :     0.652304
      dz2     :    -0.010469  d :    -0.031537
      dxz     :    -0.010249
      dyz     :     0.006453
      dx2y2   :     0.009134
      dxy     :    -0.026407

  3 H s       :     1.107876  s :     1.107876
      pz      :     0.005085  p :    -0.005827
      px      :    -0.009885
      py      :    -0.001028

  4 H s       :     1.093898  s :     1.093898
      pz      :     0.003224  p :    -0.008936
      px      :    -0.008639
      py      :    -0.003520

  5 H s       :     1.289915  s :     1.289915
      pz      :    -0.010228  p :     0.011384
      px      :     0.027954
      py      :    -0.006342

  6 O s       :     4.132669  s :     4.132669
      pz      :     1.624705  p :     4.839631
      px      :     1.908228
      py      :     1.306698
      dz2     :     0.001088  d :     0.027850
      dxz     :     0.000301
      dyz     :     0.013241
      dx2y2   :     0.007301
      dxy     :     0.005918

  7 O s       :     4.054623  s :     4.054623
      pz      :     1.565189  p :     4.646191
      px      :     1.768429
      py      :     1.312573
      dz2     :     0.001601  d :     0.030788
      dxz     :     0.001307
      dyz     :     0.013517
      dx2y2   :     0.006029
      dxy     :     0.008334

  8 O s       :     3.975495  s :     3.975495
      pz      :     1.827949  p :     4.587593
      px      :     1.528839
      py      :     1.230806
      dz2     :     0.000752  d :     0.016842
      dxz     :     0.007289
      dyz     :     0.004522
      dx2y2   :     0.003425
      dxy     :     0.000854

  9 H s       :     0.733035  s :     0.733035
      pz      :     0.029584  p :     0.089008
      px      :     0.038888
      py      :     0.020536

 10 O s       :     3.800375  s :     3.800375
      pz      :     1.921089  p :     4.563912
      px      :     1.373637
      py      :     1.269186
      dz2     :    -0.002302  d :    -0.010640
      dxz     :     0.001231
      dyz     :     0.001297
      dx2y2   :    -0.011618
      dxy     :     0.000752

 11 H s       :     0.784807  s :     0.784807
      pz      :     0.044982  p :     0.102415
      px      :     0.025105
      py      :     0.032329

 12 H s       :     0.723504  s :     0.723504
      pz      :     0.035323  p :     0.061077
      px      :     0.013899
      py      :     0.011855

 13 O s       :     3.767651  s :     3.767651
      pz      :     1.308157  p :     4.552395
      px      :     1.495879
      py      :     1.748359
      dz2     :    -0.007217  d :    -0.009852
      dxz     :     0.000908
      dyz     :    -0.000848
      dx2y2   :    -0.000627
      dxy     :    -0.002068

 14 H s       :     0.818792  s :     0.818792
      pz      :     0.039913  p :     0.115695
      px      :     0.032967
      py      :     0.042815

 15 H s       :     0.668443  s :     0.668443
      pz      :     0.027842  p :     0.066783
      px      :     0.020306
      py      :     0.018634


SPIN
  0 C s       :     0.018930  s :     0.018930
      pz      :     0.358102  p :     0.411604
      px      :     0.036360
      py      :     0.017142
      dz2     :    -0.000448  d :     0.024018
      dxz     :     0.009647
      dyz     :     0.013991
      dx2y2   :    -0.001554
      dxy     :     0.002383

  1 C s       :    -0.051844  s :    -0.051844
      pz      :     0.124315  p :     0.112502
      px      :    -0.008667
      py      :    -0.003147
      dz2     :    -0.000209  d :     0.019907
      dxz     :     0.020802
      dyz     :     0.000445
      dx2y2   :    -0.000505
      dxy     :    -0.000627

  2 C s       :    -0.013073  s :    -0.013073
      pz      :    -0.006760  p :    -0.038715
      px      :    -0.022239
      py      :    -0.009716
      dz2     :    -0.000400  d :     0.003075
      dxz     :     0.001132
      dyz     :    -0.000047
      dx2y2   :     0.000972
      dxy     :     0.001419

  3 H s       :     0.017730  s :     0.017730
      pz      :     0.000566  p :    -0.000148
      px      :    -0.001044
      py      :     0.000330

  4 H s       :     0.018608  s :     0.018608
      pz      :     0.000117  p :    -0.000931
      px      :    -0.001295
      py      :     0.000247

  5 H s       :    -0.001368  s :    -0.001368
      pz      :     0.000634  p :     0.001265
      px      :     0.000535
      py      :     0.000096

  6 O s       :     0.023739  s :     0.023739
      pz      :     0.245684  p :     0.248417
      px      :     0.003981
      py      :    -0.001249
      dz2     :     0.000055  d :    -0.000403
      dxz     :     0.000014
      dyz     :     0.000465
      dx2y2   :    -0.000363
      dxy     :    -0.000574

  7 O s       :     0.013566  s :     0.013566
      pz      :     0.166109  p :     0.171056
      px      :     0.002017
      py      :     0.002930
      dz2     :     0.000112  d :    -0.000397
      dxz     :     0.000215
      dyz     :    -0.000278
      dx2y2   :    -0.000109
      dxy     :    -0.000337

  8 O s       :     0.003363  s :     0.003363
      pz      :     0.027743  p :     0.025032
      px      :    -0.002284
      py      :    -0.000427
      dz2     :    -0.000030  d :    -0.000185
      dxz     :    -0.000337
      dyz     :     0.000457
      dx2y2   :    -0.000378
      dxy     :     0.000104

  9 H s       :    -0.000883  s :    -0.000883
      pz      :     0.000985  p :    -0.000357
      px      :    -0.001388
      py      :     0.000046

 10 O s       :     0.000066  s :     0.000066
      pz      :     0.000432  p :     0.000131
      px      :    -0.000335
      py      :     0.000034
      dz2     :    -0.000001  d :     0.000010
      dxz     :     0.000000
      dyz     :    -0.000000
      dx2y2   :     0.000012
      dxy     :    -0.000002

 11 H s       :    -0.000298  s :    -0.000298
      pz      :    -0.000006  p :    -0.000027
      px      :    -0.000008
      py      :    -0.000012

 12 H s       :    -0.000941  s :    -0.000941
      pz      :     0.000483  p :    -0.001365
      px      :    -0.001742
      py      :    -0.000107

 13 O s       :     0.000372  s :     0.000372
      pz      :    -0.000421  p :    -0.000478
      px      :    -0.000135
      py      :     0.000079
      dz2     :    -0.000011  d :    -0.000033
      dxz     :    -0.000009
      dyz     :    -0.000015
      dx2y2   :     0.000003
      dxy     :    -0.000002

 14 H s       :     0.000153  s :     0.000153
      pz      :    -0.000051  p :    -0.000120
      px      :    -0.000034
      py      :    -0.000035

 15 H s       :    -0.000838  s :    -0.000838
      pz      :     0.001622  p :    -0.001139
      px      :    -0.001971
      py      :    -0.000790



                     *******************************
                     * LOEWDIN POPULATION ANALYSIS *
                     *******************************

-------------------------------------------
LOEWDIN ATOMIC CHARGES AND SPIN POPULATIONS
-------------------------------------------
   0 C :   -0.378332    0.311528
   1 C :   -0.442959    0.162681
   2 C :    0.133796    0.034536
   3 H :   -0.018378    0.012347
   4 H :   -0.016209    0.012513
   5 H :   -0.027807   -0.001594
   6 O :    0.013551    0.264315
   7 O :    0.036258    0.169746
   8 O :    0.203144    0.031635
   9 H :   -0.123970    0.000651
  10 O :    0.167084    0.000244
  11 H :   -0.137823   -0.000275
  12 H :   -0.212843   -0.000247
  13 O :    0.170687    0.000531
  14 H :   -0.135642    0.000413
  15 H :   -0.230559    0.000975

----------------------------------------------------
LOEWDIN REDUCED ORBITAL CHARGES AND SPIN POPULATIONS
----------------------------------------------------
CHARGE
  0 C s       :     2.584651  s :     2.584651
      pz      :     0.773631  p :     2.591620
      px      :     0.925108
      py      :     0.892881
      dz2     :     0.098330  d :     1.202062
      dxz     :     0.148128
      dyz     :     0.205569
      dx2y2   :     0.363659
      dxy     :     0.386376

  1 C s       :     2.568787  s :     2.568787
      pz      :     0.697918  p :     2.477021
      px      :     0.901098
      py      :     0.878005
      dz2     :     0.118576  d :     1.397150
      dxz     :     0.173892
      dyz     :     0.252757
      dx2y2   :     0.406673
      dxy     :     0.445253

  2 C s       :     2.604511  s :     2.604511
      pz      :     0.931702  p :     2.807441
      px      :     0.929571
      py      :     0.946168
      dz2     :     0.066074  d :     0.454251
      dxz     :     0.143699
      dyz     :     0.034819
      dx2y2   :     0.116773
      dxy     :     0.092887

  3 H s       :     0.734081  s :     0.734081
      pz      :     0.118088  p :     0.284297
      px      :     0.092844
      py      :     0.073365

  4 H s       :     0.733603  s :     0.733603
      pz      :     0.118801  p :     0.282606
      px      :     0.091896
      py      :     0.071909

  5 H s       :     0.726869  s :     0.726869
      pz      :     0.075737  p :     0.300937
      px      :     0.098176
      py      :     0.127024

  6 O s       :     3.328993  s :     3.328993
      pz      :     1.456712  p :     4.455115
      px      :     1.596080
      py      :     1.402322
      dz2     :     0.022792  d :     0.202341
      dxz     :     0.002049
      dyz     :     0.049816
      dx2y2   :     0.062053
      dxy     :     0.065632

  7 O s       :     3.343664  s :     3.343664
      pz      :     1.422983  p :     4.439259
      px      :     1.569716
      py      :     1.446560
      dz2     :     0.020681  d :     0.180819
      dxz     :     0.005171
      dyz     :     0.038447
      dx2y2   :     0.058221
      dxy     :     0.058298

  8 O s       :     3.234671  s :     3.234671
      pz      :     1.607506  p :     4.376364
      px      :     1.487764
      py      :     1.281093
      dz2     :     0.023755  d :     0.185821
      dxz     :     0.017106
      dyz     :     0.021784
      dx2y2   :     0.048685
      dxy     :     0.074490

  9 H s       :     0.592717  s :     0.592717
      pz      :     0.123717  p :     0.531253
      px      :     0.235148
      py      :     0.172388

 10 O s       :     3.260068  s :     3.260068
      pz      :     1.715156  p :     4.521819
      px      :     1.442150
      py      :     1.364513
      dz2     :     0.009976  d :     0.051029
      dxz     :     0.000520
      dyz     :     0.000297
      dx2y2   :     0.037972
      dxy     :     0.002262

 11 H s       :     0.640284  s :     0.640284
      pz      :     0.148489  p :     0.497539
      px      :     0.120612
      py      :     0.228437

 12 H s       :     0.602806  s :     0.602806
      pz      :     0.146278  p :     0.610037
      px      :     0.351211
      py      :     0.112547

 13 O s       :     3.260409  s :     3.260409
      pz      :     1.388053  p :     4.517002
      px      :     1.510490
      py      :     1.618459
      dz2     :     0.026961  d :     0.051902
      dxz     :     0.002618
      dyz     :     0.006047
      dx2y2   :     0.005925
      dxy     :     0.010353

 14 H s       :     0.648753  s :     0.648753
      pz      :     0.217627  p :     0.486889
      px      :     0.123824
      py      :     0.145438

 15 H s       :     0.594135  s :     0.594135
      pz      :     0.121790  p :     0.636423
      px      :     0.334367
      py      :     0.180266


SPIN
  0 C s       :     0.005826  s :     0.005826
      pz      :     0.239902  p :     0.246678
      px      :     0.004021
      py      :     0.002755
      dz2     :    -0.000655  d :     0.059024
      dxz     :     0.023927
      dyz     :     0.037091
      dx2y2   :     0.000029
      dxy     :    -0.001367

  1 C s       :    -0.000478  s :    -0.000478
      pz      :     0.088417  p :     0.084406
      px      :    -0.003214
      py      :    -0.000797
      dz2     :    -0.000070  d :     0.078753
      dxz     :     0.066910
      dyz     :     0.011126
      dx2y2   :     0.001002
      dxy     :    -0.000215

  2 C s       :    -0.002065  s :    -0.002065
      pz      :    -0.003776  p :    -0.013538
      px      :    -0.005878
      py      :    -0.003883
      dz2     :     0.000240  d :     0.050138
      dxz     :     0.042938
      dyz     :     0.005894
      dx2y2   :    -0.000191
      dxy     :     0.001258

  3 H s       :     0.010051  s :     0.010051
      pz      :     0.000617  p :     0.002296
      px      :     0.001968
      py      :    -0.000289

  4 H s       :     0.010192  s :     0.010192
      pz      :     0.000626  p :     0.002322
      px      :     0.002011
      py      :    -0.000315

  5 H s       :     0.000048  s :     0.000048
      pz      :    -0.000539  p :    -0.001641
      px      :    -0.000683
      py      :    -0.000419

  6 O s       :     0.005346  s :     0.005346
      pz      :     0.223876  p :     0.228186
      px      :     0.005227
      py      :    -0.000917
      dz2     :     0.000355  d :     0.030783
      dxz     :     0.000974
      dyz     :     0.029022
      dx2y2   :     0.000521
      dxy     :    -0.000089

  7 O s       :     0.003186  s :     0.003186
      pz      :     0.150145  p :     0.153331
      px      :     0.002424
      py      :     0.000763
      dz2     :     0.000138  d :     0.013228
      dxz     :     0.002093
      dyz     :     0.011442
      dx2y2   :    -0.000029
      dxy     :    -0.000416

  8 O s       :     0.000230  s :     0.000230
      pz      :     0.026775  p :     0.023969
      px      :    -0.001635
      py      :    -0.001171
      dz2     :    -0.000009  d :     0.007435
      dxz     :     0.004023
      dyz     :     0.003887
      dx2y2   :    -0.000432
      dxy     :    -0.000034

  9 H s       :    -0.001016  s :    -0.001016
      pz      :     0.003112  p :     0.001667
      px      :    -0.001084
      py      :    -0.000361

 10 O s       :    -0.000132  s :    -0.000132
      pz      :     0.000920  p :     0.000377
      px      :    -0.000503
      py      :    -0.000040
      dz2     :    -0.000015  d :    -0.000001
      dxz     :     0.000053
      dyz     :     0.000000
      dx2y2   :    -0.000037
      dxy     :    -0.000002

 11 H s       :    -0.000157  s :    -0.000157
      pz      :    -0.000026  p :    -0.000117
      px      :    -0.000049
      py      :    -0.000042

 12 H s       :    -0.000407  s :    -0.000407
      pz      :     0.001313  p :     0.000161
      px      :    -0.001075
      py      :    -0.000077

 13 O s       :    -0.000186  s :    -0.000186
      pz      :     0.001177  p :     0.000696
      px      :    -0.000482
      py      :     0.000001
      dz2     :     0.000008  d :     0.000020
      dxz     :     0.000058
      dyz     :     0.000027
      dx2y2   :    -0.000024
      dxy     :    -0.000049

 14 H s       :     0.000220  s :     0.000220
      pz      :    -0.000017  p :     0.000193
      px      :     0.000181
      py      :     0.000030

 15 H s       :    -0.000612  s :    -0.000612
      pz      :     0.003398  p :     0.001587
      px      :    -0.001456
      py      :    -0.000355



                      *****************************
                      * MAYER POPULATION ANALYSIS *
                      *****************************

  NA   - Mulliken gross atomic population
  ZA   - Total nuclear charge
  QA   - Mulliken gross atomic charge
  VA   - Mayer's total valence
  BVA  - Mayer's bonded valence
  FA   - Mayer's free valence

  ATOM       NA         ZA         QA         VA         BVA        FA
  0 C      5.8886     6.0000     0.1114     3.9193     3.7510     0.1683
  1 C      5.1024     6.0000     0.8976     2.5210     2.4909     0.0301
  2 C      5.3816     6.0000     0.6184     3.7713     3.7694     0.0018
  3 H      1.1020     1.0000    -0.1020     0.8578     0.8572     0.0006
  4 H      1.0850     1.0000    -0.0850     0.8471     0.8464     0.0006
  5 H      1.3013     1.0000    -0.3013     0.8237     0.8237     0.0000
  6 O      9.0001     8.0000    -1.0001     1.5162     1.4485     0.0677
  7 O      8.7316     8.0000    -0.7316     1.6598     1.6292     0.0306
  8 O      8.5799     8.0000    -0.5799     1.6934     1.6923     0.0011
  9 H      0.8220     1.0000     0.1780     1.0296     1.0295     0.0000
 10 O      8.3536     8.0000    -0.3536     1.8583     1.8583    -0.0000
 11 H      0.8872     1.0000     0.1128     1.0292     1.0292     0.0000
 12 H      0.7846     1.0000     0.2154     0.9350     0.9350     0.0000
 13 O      8.3102     8.0000    -0.3102     1.8932     1.8932     0.0000
 14 H      0.9345     1.0000     0.0655     1.0795     1.0795    -0.0000
 15 H      0.7352     1.0000     0.2648     0.8902     0.8902     0.0000

  Mayer bond orders larger than 0.100000
B(  0-C ,  1-C ) :   0.8261 B(  0-C ,  2-C ) :   1.3326 B(  0-C ,  3-H ) :   0.1489 
B(  0-C ,  4-H ) :   0.1467 B(  0-C ,  5-H ) :   0.2859 B(  0-C ,  6-O ) :   0.9786 
B(  0-C ,  8-O ) :   0.1932 B(  1-C ,  2-C ) :  -0.1007 B(  1-C ,  5-H ) :  -0.1529 
B(  1-C ,  6-O ) :   0.1199 B(  1-C ,  7-O ) :   1.4197 B(  1-C ,  8-O ) :   0.5169 
B(  2-C ,  3-H ) :   0.8570 B(  2-C ,  4-H ) :   0.8533 B(  2-C ,  5-H ) :   0.7666 
B(  6-O ,  9-H ) :   0.1392 B(  6-O , 15-H ) :   0.1528 B(  7-O , 12-H ) :   0.1314 
B(  8-O ,  9-H ) :   0.9523 B( 10-O , 11-H ) :   1.0535 B( 10-O , 12-H ) :   0.8588 
B( 13-O , 14-H ) :   1.0964 B( 13-O , 15-H ) :   0.7766 

-------
TIMINGS
-------

Total SCF time: 0 days 0 hours 2 min 41 sec 

Total time                  ....     161.740 sec
Sum of individual times     ....     153.317 sec  ( 94.8%)

SCF preparation             ....       0.382 sec  (  0.2%)
Fock matrix formation       ....     151.258 sec  ( 93.5%)
  Startup                   ....       0.037 sec  (  0.0% of F)
  Coulomb+Exchange Fock     ....     138.503 sec  ( 91.6% of F)
  XC integration            ....      20.540 sec  ( 13.6% of F)
    XC Preparation          ....       0.000 sec  (  0.0% of XC)
    Basis function eval.    ....       5.383 sec  ( 26.2% of XC)
    Density eval.           ....       5.076 sec  ( 24.7% of XC)
    XC-Functional eval.     ....       1.208 sec  (  5.9% of XC)
    XC-Potential eval.      ....       7.206 sec  ( 35.1% of XC)
Diagonalization             ....       0.000 sec  (  0.0%)
Density matrix formation    ....       0.286 sec  (  0.2%)
Total Energy calculation    ....       0.075 sec  (  0.0%)
Population analysis         ....       0.066 sec  (  0.0%)
Orbital Transformation      ....       0.203 sec  (  0.1%)
Orbital Orthonormalization  ....       0.000 sec  (  0.0%)
DIIS solution               ....       0.484 sec  (  0.3%)
SOSCF solution              ....       0.564 sec  (  0.3%)
Finished LeanSCF after 161.8 sec

Maximum memory used throughout the entire LEANSCF-calculation: 19.1 MB


           ************************************************************
           *        Program running with 8 parallel MPI-processes     *
           *              working on a common directory               *
           ************************************************************

------------------------------------------------------------------------------
                         ORCA PROPERTY INTEGRAL CALCULATIONS
------------------------------------------------------------------------------

GBWName                                   ... d0_freq_2_wat.gbw
Number of atoms                           ...     16
Number of basis functions                 ...    304
Max core memory                           ...   8000 MB

Dipole integrals                          ... YES
Quadrupole integrals                      ...  NO
Linear momentum integrals                 ...  NO
Angular momentum integrals                ...  NO
Higher moments length integrals           ...  NO
Higher moments velocity integrals         ...  NO
Kinetic energy integrals                  ...  NO
GIAO right hand sides                     ...  NO
GIAO dipole derivative integrals          ...  NO
SOC integrals                             ...  NO
EPR diamagnetic integrals (GIAO)          ...  NO
EPR gauge integrals                       ...  NO
Field gradient integrals                  ...  NO (   0 nuclei)
Spin-dipole/Fermi contact integrals       ...  NO (   0 nuclei)
Contact density integrals                 ...  NO (   0 nuclei)
Nucleus-orbit integrals                   ...  NO (   0 nuclei)
Geometric perturbations                   ... YES (  16 nuclei)

Choice of electric origin   ... Center of mass
Position of electric origin ... (  0.2237, -0.3627,  0.1020) 
Choice of magnetic origin   ... GIAO
Position of magnetic origin ... (  0.0000,  0.0000,  0.0000) 

Calculating integrals                     ... Electric Dipole (Length)     done (  0.0 sec)
Calculating integrals                     ... Geometrical perturbation right hand sides

-----------------------
GEOMETRIC PERTURBATIONS (16 nuclei)
-----------------------

MaxCore                            ...   8000 MB
Number of batches                  ...      1

BATCH   0: Atoms    0 -   15 ( 48 perturbations)
   => H(core) and overlap derivative integrals     ... done (     0.3 sec)
   => Making and storing internal U-coefficients   ... done (     0.0 sec)
   => Exact two electron derivative integrals      ... done (   103.0 sec)
   => Exact two-electron response operators        ... done (   471.6 sec)
   => XC derivative integrals                      ... done (   174.1 sec)
   => XC response operators                        ... done (    43.1 sec)
   => Completing and storing right hand sides      ... done (     0.1 sec)
   => Total time for right hand sides = 690.8 sec

  geometrical perturbations done (690.9 sec)

Property integrals calculated in 691.0 sec

Maximum memory used throughout the entire PROPINT-calculation: 142.0 MB

-------------------------   --------------------
FINAL SINGLE POINT ENERGY      -495.263319899879
-------------------------   --------------------



           ************************************************************
           *        Program running with 8 parallel MPI-processes     *
           *              working on a common directory               *
           ************************************************************
------------------------------------------------------------------------------
                         ORCA SCF GRADIENT CALCULATION
------------------------------------------------------------------------------

Nuc. rep. gradient        (SHARK) ... done (  0.0 sec)
HCore & Overlap gradient  (SHARK) ... done (  0.1 sec)
Two-electron gradient     (SHARK) ... done ( 31.8 sec)
XC gradient                       ... done (  7.5 sec)

------------------
CARTESIAN GRADIENT
------------------

   1   C   :    0.000019452    0.000030876   -0.000000453
   2   C   :   -0.000055183    0.000020386   -0.000010279
   3   C   :    0.000021817   -0.000004992    0.000012549
   4   H   :   -0.000003597   -0.000016441    0.000000457
   5   H   :   -0.000001437    0.000007233   -0.000010174
   6   H   :   -0.000001247    0.000002073   -0.000005848
   7   O   :   -0.000075156    0.000176197    0.000114083
   8   O   :   -0.000014817    0.000022937    0.000008132
   9   O   :    0.000051876   -0.000003338    0.000000420
  10   H   :   -0.000010456   -0.000001549   -0.000001345
  11   O   :   -0.000012411    0.000030362    0.000024067
  12   H   :   -0.000006368   -0.000003182   -0.000003328
  13   H   :    0.000038427   -0.000053958   -0.000025890
  14   O   :   -0.000083336    0.000363638    0.000166108
  15   H   :    0.000015753   -0.000034403   -0.000016831
  16   H   :    0.000116683   -0.000535838   -0.000251669

Difference to translation invariance:
           :    0.0000000000   -0.0000000000   -0.0000000000

Difference to rotation invariance:
           :    0.0000197217   -0.0000514429    0.0000630106

Norm of the Cartesian gradient     ...    0.0007737627
RMS gradient                       ...    0.0001116830
MAX gradient                       ...    0.0005358377

-------
TIMINGS
-------

Total SCF gradient time     ....       39.427 sec

Densities                   ....       0.003 sec  (  0.0%)
One electron gradient       ....       0.143 sec  (  0.4%)
Two electron gradient       ....      31.771 sec  ( 80.6%)
XC gradient                 ....       7.509 sec  ( 19.0%)

Maximum memory used throughout the entire SCFGRAD-calculation: 38.5 MB


           ************************************************************
           *        Program running with 8 parallel MPI-processes     *
           *              working on a common directory               *
           ************************************************************
------------------------------------------------------------------------------
                            ORCA SCF RESPONSE CALCULATION
------------------------------------------------------------------------------

GBWName                                 ... d0_freq_2_wat.gbw
Number of atoms                         ...     16
Number of basis functions               ...    304
Max core memory                         ...   8000 MB

Electric field perturbation             ...  NO
Quadrupolar field perturbation          ...  NO
Magnetic field perturbation (no GIAO)   ...  NO
Magnetic field perturbation (with GIAO) ...  NO
Linear momentum (velocity) perturbation ...  NO
Spin-orbit coupling perturbation        ...  NO
Choice of electric origin               ... Center of mass
Position of electric origin             ...     0.223707    -0.362709     0.101951
Choice of magnetic origin               ... GIAO
Position of magnetic origin             ...     0.000000     0.000000     0.000000
Nuclear geometric perturbations         ... YES (  48 perturbations)
Nucleus-orbit perturbations             ...  NO (   0 perturbations)
Spin-dipole/Fermi contact perturbations ...  NO (   0 perturbations)

Total number of real perturbations      ...     48
Total number of imaginary perturbations ...      0
Total number of triplet perturbations   ...      0
Total number of SOC perturbations       ...      0

Using XC Grid                  ... (d0_freq_2_wat.grid_cpscf.tmp) 
Recalculating density on grid  ... (d0_freq_2_wat.grho_cpscf0.tmp) done
Calculating the xc-kernel      ... (d0_freq_2_wat.fxc_cpscf0.tmp) done

                                **********************
                                * REAL PERTURBATIONS *
                                **********************



-------------------
SHARK CP-SCF DRIVER
-------------------

Dimension of the orbital basis          ...    256
Dimension of the CPSCF-problem          ...  14907
Number of operators                     ...      2
Max. number of iterations               ...    128
Convergence Tolerance                   ... 1.0e-04
Number of perturbations                 ...     48
Perturbation type                       ... REAL

----------------------------
POPLE LINEAR EQUATION SOLVER
----------------------------

  ITERATION   0:   ||err||_max =   2.7333e-01 ( 865.6 sec   0/ 48 done)
  ITERATION   1:   ||err||_max =   7.4374e-02 ( 915.6 sec   0/ 48 done)
  ITERATION   2:   ||err||_max =   4.3768e-02 ( 842.7 sec   0/ 48 done)
  ITERATION   3:   ||err||_max =   2.1987e-02 ( 847.3 sec   0/ 48 done)
  ITERATION   4:   ||err||_max =   9.4034e-03 ( 842.1 sec   0/ 48 done)
  ITERATION   5:   ||err||_max =   4.2625e-03 ( 835.1 sec   0/ 48 done)
  ITERATION   6:   ||err||_max =   1.4256e-03 ( 842.8 sec   6/ 48 done)
  ITERATION   7:   ||err||_max =   7.1060e-04 ( 737.4 sec  17/ 48 done)
  ITERATION   8:   ||err||_max =   2.5210e-04 ( 471.7 sec  37/ 48 done)
  ITERATION   9:   ||err||_max =   1.2599e-04 ( 112.1 sec  44/ 48 done)
  ITERATION  10:   ||err||_max =   4.9218e-05 (  40.6 sec  48/ 48 done)

CP-SCF equations solved in 7353.6 sec
Response densities calculated in   0.5 sec

Maximum memory used throughout the entire SCFRESP-calculation: 208.4 MB


           ************************************************************
           *        Program running with 8 parallel MPI-processes     *
           *              working on a common directory               *
           ************************************************************

------------------------------------------------------------------------------
                              ORCA PROPERTY CALCULATIONS
------------------------------------------------------------------------------

GBWName                                 ... d0_freq_2_wat.gbw
Number of atoms                         ...     16
Number of basis functions               ...    304
Max core memory                         ...   8000 MB

Electric properties:
Dipole moment                           ... YES
Quadrupole moment                       ...  NO
Static polarizability (Dipole/Dipole)   ...  NO
Static polarizability (Dipole/Quad.)    ...  NO
Static polarizability (Quad./Quad.)     ...  NO
Static polarizability (Velocity)        ...  NO
Static hyperpolarizability              ...  NO

Atomic electric properties:
Dipole moment                           ...  NO
Quadrupole moment                       ...  NO
Static polarizability                   ...  NO

Choice of electric origin               ... Center of mass
Position of electric origin             ...     0.223707    -0.362709     0.101951

General magnetic properties:
Magnetizability                         ...  NO

EPR properties:
g-Tensor (aka g-matrix)                 ...  NO
Zero-Field splitting spin-orbit         ...  NO
Zero-field splitting spin-spin          ...  NO
Hyperfine couplings                     ...  NO (   0 nuclei)
Quadrupole couplings                    ...  NO (   0 nuclei)
Contact density                         ...  NO (   0 nuclei)

NMR properties:
Chemical shifts                         ...  NO (   0 nuclei)
Spin-rotation constants                 ...  NO (   0 nuclei)
Spin-spin couplings                     ...  NO (   0 nuclei,    0 pairs)

Choice of magnetic origin               ... GIAO
Position of magnetic origin             ...     0.000000     0.000000     0.000000

Properties with geometric perturbations:
SCF Hessian                             ... YES
IR spectrum                             ... YES
VCD spectrum                            ...  NO
X-ray spectroscopy properties:
SCF XES/XAS/RIXS spectra                ...  NO

SCF SOC stabilization energy            ...  NO
Diagonal Born-Oppenheimer correction    ...  NO

-------------
DIPOLE MOMENT
-------------

Method             : SCF
Type of density    : Electron Density
Multiplicity       :   2
Irrep              :   0
Energy             :  -495.2633198998794910 Eh
Basis              : AO
                                X                 Y                 Z
Electronic contribution:      4.028784688      -0.407881528      -0.453746626
Nuclear contribution   :     -4.636633558      -0.033863779       0.885501758
                        -----------------------------------------
Total Dipole Moment    :     -0.607848870      -0.441745308       0.431755132
                        -----------------------------------------
Magnitude (a.u.)       :      0.866620828
Magnitude (Debye)      :      2.202775088



--------------------
Rotational spectrum 
--------------------
 
Rotational constants in cm-1:             0.147036             0.023065             0.020099 
Rotational constants in MHz :          4408.025491           691.477965           602.544901 

Dipole components along the rotational axes: 
[...]
     41      -0.001733   0.043130  -0.004736  -0.003620  -0.000174   0.000099
     42       0.029082  -0.547046   0.059016   0.043266   0.000711  -0.000243
     43       0.013646  -0.231006   0.025379   0.019643   0.000255  -0.000587
     44       0.002205  -0.024251   0.002751   0.002343  -0.000760  -0.000615
     45       0.046618  -0.247834   0.022718   0.013431  -0.010111  -0.002646
     46      -0.003706   0.153035  -0.016862  -0.015671  -0.007588  -0.001518
     47       0.029292  -0.741617   0.080052   0.058980   0.003478  -0.001017
                 42         43         44         45         46         47    
      0      -0.002346   0.001432  -0.000305   0.000273   0.000047  -0.000085
      1      -0.000837  -0.004231  -0.000194  -0.003382  -0.000007   0.000291
      2      -0.000028  -0.000057  -0.000005  -0.000038   0.000000   0.000009
      3       0.000473  -0.001383   0.000123  -0.002150   0.000114   0.000145
      4      -0.000673  -0.000978  -0.005698   0.006085   0.000949   0.000032
      5      -0.000002  -0.000056  -0.000059   0.000068   0.000011  -0.000007
      6      -0.047340   0.000331  -0.000372  -0.000290   0.000029   0.000012
      7      -0.077229  -0.000060  -0.000070   0.000399   0.000015  -0.000012
      8      -0.001132  -0.000277   0.000007  -0.000007  -0.000000  -0.000023
      9       0.130736  -0.005576   0.002806   0.002573  -0.000098   0.000002
     10       0.023988  -0.000038   0.000438  -0.000464  -0.000050   0.000118
     11      -0.195631   0.008714  -0.003060  -0.001950   0.000128   0.000056
     12       0.128460  -0.003235   0.002705   0.002588  -0.000096   0.000191
     13       0.019681  -0.000033   0.000387  -0.000499  -0.000049  -0.000011
     14       0.198058  -0.005610   0.002995   0.002030  -0.000127   0.000252
     15       0.328346   0.000603  -0.000770  -0.000063   0.000080  -0.000036
     16       0.878495   0.007577   0.000930   0.004065  -0.000155  -0.000352
     17       0.011285   0.000370   0.000000   0.000048  -0.000002   0.000084
     18       0.000322   0.001181   0.000337  -0.000849  -0.000024  -0.000152
     19       0.000523   0.002821   0.000875   0.002322  -0.000095  -0.000259
     20       0.000009   0.000346  -0.000011   0.000060   0.000001   0.000072
     21      -0.000346   0.000890   0.001500   0.000389  -0.000374  -0.000068
     22       0.000274   0.001270   0.002963  -0.001018  -0.000321  -0.000087
     23       0.000002   0.000026   0.000044  -0.000011  -0.000007  -0.000002
     24      -0.000143  -0.000655   0.000097   0.035167   0.000206  -0.000125
     25      -0.000106  -0.001815   0.002385   0.049280  -0.000228  -0.000077
     26      -0.000004  -0.000015   0.000028   0.000726  -0.000003  -0.000003
     27       0.001466   0.009793  -0.014608  -0.530792  -0.001655   0.001695
     28       0.004478   0.035497  -0.022241  -0.844028  -0.002179   0.001369
     29       0.000089   0.000380  -0.000333  -0.012393  -0.000034   0.000102
     30       0.000167  -0.002197  -0.059592   0.001332   0.007635  -0.000135
     31      -0.000045   0.000509   0.009170  -0.000168  -0.061358   0.000190
     32       0.000001  -0.000016  -0.000671   0.000018  -0.000964  -0.000002
     33       0.000129  -0.003172  -0.035347   0.003257  -0.052310   0.000239
     34       0.000029   0.001815   0.074712  -0.004401   0.994166  -0.002746
     35       0.000003  -0.000042   0.000787  -0.000039   0.016646  -0.000039
     36      -0.002548   0.035545   0.967247  -0.024054  -0.066429   0.002088
     37       0.000789  -0.010432  -0.227491   0.007411  -0.019081  -0.000216
     38      -0.000028   0.000306   0.009626  -0.000212  -0.001283   0.000031
     39       0.000172  -0.054471   0.001932  -0.001891  -0.000047   0.000345
     40       0.000022  -0.027205   0.000954  -0.000881   0.000029   0.020052
     41      -0.000045   0.009433  -0.000191   0.000185  -0.000165  -0.058830
     42       0.000088  -0.019056   0.000173  -0.000184   0.000166   0.058088
     43       0.000164  -0.031984   0.001364  -0.001840  -0.000854  -0.295733
     44       0.000073   0.070719  -0.004372   0.004481   0.002850   0.949138
     45      -0.003005   0.857543  -0.031114   0.030508   0.000689  -0.060985
     46       0.000003   0.447964  -0.016503   0.016571   0.000440  -0.020691
     47       0.000579  -0.225328   0.007746  -0.007763  -0.000240  -0.016649


-----------
IR SPECTRUM
-----------

 Mode   freq       eps      Int      T**2         TX        TY        TZ
       cm**-1   L/(mol*cm) km/mol    a.u.
----------------------------------------------------------------------------
  6:     24.92   0.000387    1.95  0.004842  ( 0.032510  0.002120 -0.061485)
  7:     38.79   0.000088    0.44  0.000707  (-0.013349  0.011674 -0.019808)
  8:     42.13   0.000438    2.21  0.003242  (-0.042882  0.025411  0.027516)
  9:     59.72   0.001051    5.31  0.005493  ( 0.058412 -0.044032 -0.011940)
 10:     83.24   0.013971   70.60  0.052376  (-0.074660  0.209185  0.055166)
 11:    111.80   0.002038   10.30  0.005688  (-0.030948  0.065579  0.020723)
 12:    157.96   0.001976    9.98  0.003903  ( 0.006898  0.011135  0.061087)
 13:    178.21   0.000784    3.96  0.001374  (-0.036774 -0.002505 -0.003888)
 14:    189.26   0.001691    8.55  0.002788  ( 0.029996  0.041826 -0.011786)
 15:    258.80   0.009739   49.22  0.011744  (-0.001836 -0.001069  0.108348)
 16:    300.60   0.011726   59.26  0.012174  ( 0.104390  0.035504 -0.003974)
 17:    360.81   0.000060    0.30  0.000052  (-0.006352 -0.002730 -0.002081)
 18:    392.88   0.014182   71.67  0.011265  ( 0.072240 -0.077754 -0.000536)
 19:    414.35   0.003503   17.70  0.002638  (-0.047634 -0.014277  0.012859)
 20:    448.47   0.010951   55.34  0.007620  ( 0.052485  0.039158 -0.057727)
 21:    575.64   0.000745    3.76  0.000404  ( 0.019584 -0.001899  0.004081)
 22:    606.11   0.001006    5.08  0.000518  ( 0.022013  0.005750  0.000542)
 23:    688.70   0.000125    0.63  0.000056  (-0.000173 -0.000302 -0.007504)
 24:    767.28   0.025646  129.60  0.010431  ( 0.001082  0.001778 -0.102109)
 25:    771.91   0.008630   43.61  0.003489  ( 0.001837  0.001869 -0.059009)
 26:    808.42   0.001349    6.82  0.000521  (-0.000460  0.022716 -0.002107)
 27:    869.20   0.016546   83.62  0.005940  ( 0.009404 -0.074155 -0.018788)
 28:    985.50   0.004530   22.89  0.001435  ( 0.031462  0.021088 -0.000090)
 29:   1010.76   0.000036    0.18  0.000011  (-0.000256 -0.000655 -0.003258)
 30:   1114.83   0.030233  152.79  0.008463  ( 0.091744 -0.006684 -0.001096)
 31:   1303.59   0.020832  105.28  0.004987  ( 0.014290 -0.069153 -0.000726)
 32:   1364.98   0.017954   90.73  0.004105  (-0.029029  0.057103  0.001120)
 33:   1428.61   0.033097  167.26  0.007230  (-0.036000  0.077020  0.001283)
 34:   1456.66   0.001190    6.01  0.000255  (-0.004166  0.000453 -0.015406)
 35:   1462.31   0.015291   77.28  0.003263  ( 0.055030  0.015020 -0.003054)
 36:   1525.22   0.076618  387.19  0.015676  ( 0.071288  0.102920 -0.001295)
 37:   1692.03   0.020780  105.02  0.003833  (-0.054925 -0.021420 -0.018894)
 38:   1704.88   0.072701  367.40  0.013307  (-0.101869 -0.054123  0.000873)
 39:   1731.44   0.033543  169.51  0.006046  (-0.066396 -0.040451  0.000992)
 40:   3018.80   0.015226   76.95  0.001574  ( 0.038420 -0.009892  0.000115)
 41:   3071.53   0.008563   43.27  0.000870  (-0.000179  0.000214 -0.029494)
 42:   3150.34   0.003413   17.25  0.000338  (-0.008429 -0.016342  0.000091)
 43:   3353.13   0.312930  1581.42  0.029123  ( 0.136147  0.099597 -0.025836)
 44:   3530.28   0.165035  834.02  0.014588  ( 0.120230  0.011400  0.001827)
 45:   3587.79   0.019107   96.56  0.001662  (-0.032318 -0.024834 -0.000838)
 46:   3929.84   0.004523   22.86  0.000359  (-0.011128  0.015340  0.000216)
 47:   3955.65   0.006747   34.10  0.000532  (-0.013124 -0.013547  0.013287)

* The epsilon (eps) is given for a Dirac delta lineshape.
** The dipole moment derivative (T) already includes vibrational overlap.

The first frequency considered to be a vibration is 6
The total number of vibrations considered is 42


--------------------------
THERMOCHEMISTRY AT 298.15K
--------------------------

Temperature         ...   298.15 K
Pressure            ...     1.00 atm
Total Mass          ...   124.09 AMU
Quasi RRHO          ...     True
Cut-Off Frequency   ...     1.00 cm^-1

Throughout the following assumptions are being made:
  (1) The electronic state is orbitally nondegenerate
      but the spin degeneracy is treated
  (2) There are no thermally accessible electronically excited states
  (3) Hindered rotations indicated by low frequency modes are not
      treated as such but are treated as vibrations and this may
      cause some error
  (4) All equations used are the standard statistical mechanics
      equations for an ideal gas
  (5) All vibrations are strictly harmonic

freq.      24.92  E(vib)   ...       0.56 
freq.      38.79  E(vib)   ...       0.54 
freq.      42.13  E(vib)   ...       0.53 
freq.      59.72  E(vib)   ...       0.51 
freq.      83.24  E(vib)   ...       0.48 
freq.     111.80  E(vib)   ...       0.45 
freq.     157.96  E(vib)   ...       0.40 
freq.     178.21  E(vib)   ...       0.37 
freq.     189.26  E(vib)   ...       0.36 
freq.     258.80  E(vib)   ...       0.30 
freq.     300.60  E(vib)   ...       0.26 
freq.     360.81  E(vib)   ...       0.22 
freq.     392.88  E(vib)   ...       0.20 
freq.     414.35  E(vib)   ...       0.19 
freq.     448.47  E(vib)   ...       0.17 
freq.     575.64  E(vib)   ...       0.11 
freq.     606.11  E(vib)   ...       0.10 
freq.     688.70  E(vib)   ...       0.07 
freq.     767.28  E(vib)   ...       0.06 
freq.     771.91  E(vib)   ...       0.05 
freq.     808.42  E(vib)   ...       0.05 
freq.     869.20  E(vib)   ...       0.04 
freq.     985.50  E(vib)   ...       0.02 
freq.    1010.76  E(vib)   ...       0.02 
freq.    1114.83  E(vib)   ...       0.01 
freq.    1303.59  E(vib)   ...       0.01 
freq.    1364.98  E(vib)   ...       0.01 
freq.    1428.61  E(vib)   ...       0.00 
freq.    1456.66  E(vib)   ...       0.00 
freq.    1462.31  E(vib)   ...       0.00 
freq.    1525.22  E(vib)   ...       0.00 
freq.    1692.03  E(vib)   ...       0.00 
freq.    1704.88  E(vib)   ...       0.00 
freq.    1731.44  E(vib)   ...       0.00 
freq.    3018.80  E(vib)   ...       0.00 
freq.    3071.53  E(vib)   ...       0.00 
freq.    3150.34  E(vib)   ...       0.00 
freq.    3353.13  E(vib)   ...       0.00 
freq.    3530.28  E(vib)   ...       0.00 
freq.    3587.79  E(vib)   ...       0.00 
freq.    3929.84  E(vib)   ...       0.00 
freq.    3955.65  E(vib)   ...       0.00 

------------
INNER ENERGY
------------

The inner energy is: U= E(el) + E(ZPE) + E(vib) + E(rot) + E(trans)
    E(el)   - is the total energy from the electronic structure calculation
              = E(kin-el) + E(nuc-el) + E(el-el) + E(nuc-nuc)
    E(ZPE)  - the the zero temperature vibrational energy from the frequency calculation
    E(vib)  - the the finite temperature correction to E(ZPE) due to population
              of excited vibrational states
    E(rot)  - is the rotational thermal energy
    E(trans)- is the translational thermal energy

Summary of contributions to the inner energy U:
Electronic energy                ...   -495.26331990 Eh
Zero point energy                ...      0.11966621 Eh      75.09 kcal/mol
Thermal vibrational correction   ...      0.00972236 Eh       6.10 kcal/mol
Thermal rotational correction    ...      0.00141627 Eh       0.89 kcal/mol
Thermal translational correction ...      0.00141627 Eh       0.89 kcal/mol
-----------------------------------------------------------------------
Total thermal energy                   -495.13109879 Eh


Summary of corrections to the electronic energy:
(perhaps to be used in another calculation)
Total thermal correction                  0.01255490 Eh       7.88 kcal/mol
Non-thermal (ZPE) correction              0.11966621 Eh      75.09 kcal/mol
-----------------------------------------------------------------------
Total correction                          0.13222111 Eh      82.97 kcal/mol


--------
ENTHALPY
--------

The enthalpy is H = U + kB*T
                kB is Boltzmann's constant
Total thermal energy              ...   -495.13109879 Eh 
Thermal Enthalpy correction       ...      0.00094421 Eh       0.59 kcal/mol
-----------------------------------------------------------------------
Total Enthalpy                    ...   -495.13015458 Eh


Note: Only C1 symmetry has been detected, increase convergence thresholds 
      if your molecule has a higher symmetry. Symmetry factor of 1.0 is   
      used for the rotational entropy correction. 
 

Note: Rotational entropy computed according to Herzberg 
Infrared and Raman Spectra, Chapter V,1, Van Nostrand Reinhold, 1945 
Point Group:  C1, Symmetry Number:   1  
Rotational constants in cm-1:     0.147036     0.023065     0.020099 

Vibrational entropy computed according to the QRRHO of S. Grimme
Chem.Eur.J. 2012 18 9955 using a reference frequency of 100.0 cm-1


-------
ENTROPY
-------

The entropy contributions are T*S = T*(S(el)+S(vib)+S(rot)+S(trans))
     S(el)   - electronic entropy
     S(vib)  - vibrational entropy
     S(rot)  - rotational entropy
     S(trans)- translational entropy
The entropies will be listed as multiplied by the temperature to get
units of energy

Electronic entropy                ...      0.00065446 Eh      0.41 kcal/mol
Vibrational entropy               ...      0.01812320 Eh     11.37 kcal/mol
Rotational entropy                ...      0.01403986 Eh      8.81 kcal/mol
Translational entropy             ...      0.01917695 Eh     12.03 kcal/mol
-----------------------------------------------------------------------
Final entropy term                ...      0.05199446 Eh     32.63 kcal/mol

In case the symmetry of your molecule has not been determined correctly
or in case you have a reason to use a different symmetry number we print 
out the resulting rotational entropy values for sn=1,12:

 non-linear molecules -----------------------------------
|  sn= 1 | S(rot)=       0.01403986 Eh      8.81 kcal/mol|
|  sn= 2 | S(rot)=       0.01338540 Eh      8.40 kcal/mol|
|  sn= 3 | S(rot)=       0.01300257 Eh      8.16 kcal/mol|
|  sn= 4 | S(rot)=       0.01273095 Eh      7.99 kcal/mol|
|  sn= 5 | S(rot)=       0.01252026 Eh      7.86 kcal/mol|
|  sn= 6 | S(rot)=       0.01234811 Eh      7.75 kcal/mol|
|  sn= 7 | S(rot)=       0.01220257 Eh      7.66 kcal/mol|
|  sn= 8 | S(rot)=       0.01207649 Eh      7.58 kcal/mol|
|  sn= 9 | S(rot)=       0.01196528 Eh      7.51 kcal/mol|
|  sn=10 | S(rot)=       0.01186580 Eh      7.45 kcal/mol|
|  sn=11 | S(rot)=       0.01177581 Eh      7.39 kcal/mol|
|  sn=12 | S(rot)=       0.01169366 Eh      7.34 kcal/mol|
 linear molecules ---------------------------------------
|  Dinfh | S(rot)=       0.00901481 Eh      5.66 kcal/mol|
|  Cinfv | S(rot)=       0.00966927 Eh      6.07 kcal/mol|
 --------------------------------------------------------


-------------------
GIBBS FREE ENERGY
-------------------

The Gibbs free energy is G = H - T*S

Total enthalpy                    ...   -495.13015458 Eh 
Total entropy correction          ...     -0.05199446 Eh    -32.63 kcal/mol
-----------------------------------------------------------------------
Final Gibbs free energy         ...   -495.18214905 Eh

For completeness - the Gibbs free energy minus the electronic energy
G-E(el)                           ...      0.08117085 Eh     50.94 kcal/mol


Maximum memory used throughout the entire PROP-calculation: 45.7 MB

--------------------------------
SUGGESTED CITATIONS FOR THIS RUN
--------------------------------

Below you find a list of papers that are relevant to this ORCA run
We neither can nor want to force you to cite these papers, but we appreciate if you do
You receive ORCA, which is the product of decades of hard work by many enthusiastic individuals, for free
The only thing we kindly ask in return is that you cite our papers,
We deeply appreciate it, if you show your appreciation for ORCA by not just citing the generic ORCA reference.

Please note that relegating all ORCA citations to the supporting information does *not* help us.
SI sections are not indexed - citations you put there will not count into any citation statistics
But we need these citations in order to attract the funding resources that allow us to do what we are doing

Therefore, if you are a happy ORCA user, please consider citing a few of the papers listed below in the main body of your paper

In addition to the list printed below, the program has created the file d0_freq_2_wat.bibtex that contains the list in bibtex format
You can import this file easily into all common literature databanks and citation aid programs


List of essential papers. We consider these as the minimum necessary citations

  1. Neese, F.
     Software update: the ORCA program system, version 6.0
     WIRES Comput. Molec. Sci. 2025 15(1), e70019
     doi.org/10.1002/wcms.7019

List of papers to cite with high priority. The work reported in these papers was absolutely
necessary for this run to complete.
Our perspective: the developers of density functionals and basis sets usually get cited in chemistry papers
Good! But without the algorithms to do something with them, the functionals or basis sets would not do anything.
Hence, in our opinion, the algorithm design and method developments papers are equally worthy of getting cited

  1. Bykov, D.; Petrenko, T.; Izsak, R.; Kossmann, S.; Becker, U.; Valeev, E.; Neese, F.
     Efficient implementation of the analytic second derivatives of Hartree-Fock and hybrid DFT energies: a detailed analysis of different approximations
     Molec. Phys. 2015 113 , 1961-1977
     doi.org/10.1080/00268976.2015.1025114
  2. Lehtola, S.; Steigemann, C.; Oliveira, M.; Marques, M.
     Recent developments in Libxc - A comprehensive library of functionals for density functional theory
     Software X 2018 7 , 
     doi.org/10.1016/j.softx.2017.11.002
  3. Neese, F.
     The SHARK Integral Generation and Digestion System
     J. Comp. Chem. 2022 44(3), 381
     doi.org/10.1002/jcc.26942

List of suggested additional citations. These are papers that are important in the 'surrounding' of 
of this run, or papers that preceded the highly important papers. If you like your results we are grateful for a citation.

  1. Neese, F.
     The ORCA program system
     WIRES Comput. Molec. Sci. 2012 2(1), 73-78
     doi.org/10.1002/wcms.81
  2. Neese, F.
     Software update: the ORCA program system, version 4.0
     WIRES Comput. Molec. Sci. 2018 8(1), 1-6
     doi.org/10.1002/wcms.1327
  3. Neese, F.; Wennmohs, F.; Becker, U.; Riplinger, C.
     The ORCA quantum chemistry program package
     J. Chem. Phys. 2020 152(22), 224108
     doi.org/10.1063/5.0004608
  4. Neese, F.
     Software update: The ORCA program system—Version 5.0
     WIRES Comput. Molec. Sci. 2022 12(1), e1606
     doi.org/10.1002/wcms.1606

List of optional additional citations

  1. Neese, F.
     Approximate second-order SCF convergence for spin unrestricted wavefunctions
     Chem. Phys. Lett. 2000 325(1-3), 93-98
     doi.org/10.1016/s0009-2614(00)00662-x

Timings for individual modules:

Sum of individual times          ...     8600.585 sec (= 143.343 min)
Startup calculation              ...       17.021 sec (=   0.284 min)   0.2 %
SCF iterations                   ...      163.763 sec (=   2.729 min)   1.9 %
Property integrals               ...      695.507 sec (=  11.592 min)   8.1 %
SCF Response                     ...     7357.272 sec (= 122.621 min)  85.5 %
Property calculations            ...      323.633 sec (=   5.394 min)   3.8 %
SCF Gradient evaluation          ...       43.388 sec (=   0.723 min)   0.5 %
                             ****ORCA TERMINATED NORMALLY****
TOTAL RUN TIME: 0 days 2 hours 23 minutes 27 seconds 160 msec
