
                                 *****************
                                 * O   R   C   A *
                                 *****************

                                            #,                                       
                                            ###                                      
                                            ####                                     
                                            #####                                    
                                            ######                                   
                                           ########,                                 
                                     ,,################,,,,,                         
                               ,,#################################,,                 
                          ,,##########################################,,             
                       ,#########################################, ''#####,          
                    ,#############################################,,   '####,        
                  ,##################################################,,,,####,       
                ,###########''''           ''''###############################       
              ,#####''   ,,,,##########,,,,          '''####'''          '####       
            ,##' ,,,,###########################,,,                        '##       
           ' ,,###''''                  '''############,,,                           
         ,,##''                                '''############,,,,        ,,,,,,###''
      ,#''                                            '''#######################'''  
     '                                                          ''''####''''         
             ,#######,   #######,   ,#######,      ##                                
            ,#'     '#,  ##    ##  ,#'     '#,    #''#        ,####,    ,#,          
            ##       ##  ##   ,#'  ##            #'  '#       #'       ,# #          
            ##       ##  #######   ##           ,######,      #####,      #          
            '#,     ,#'  ##    ##  '#,     ,#' ,#      #,     #,   #      #          
             '#######'   ##     ##  '#######'  #'      '#     '####' #    #          



                #########################################################
                #                        -***-                          #
                #          Department of theory and spectroscopy        #
                #                                                       #
                #                      Frank Neese                      #
                #                                                       #
                #     Directorship, Architecture, Infrastructure        #
                #                    SHARK, DRIVERS                     #
                #        Core code/Algorithms in most modules           #
                #                                                       #
                #        Max Planck Institute fuer Kohlenforschung      #
                #                Kaiser Wilhelm Platz 1                 #
                #                 D-45470 Muelheim/Ruhr                 #
                #                      Germany                          #
                #                                                       #
                #                  All rights reserved                  #
                #                        -***-                          #
                #########################################################


                         Program Version 6.1.0  -  RELEASE   -
                                (GIT: $679e74b$)
                          ($2025-06-10 18:02:51 +0200$)


 With contributions from (in alphabetic order):
[Max-Planck-Institut fuer Kohlenforschung]                               
  Daniel Aravena         : Magnetic Suceptibility                        
  Michael Atanasov       : Ab Initio Ligand Field Theory (pilot matlab implementation)
  Alexander A. Auer      : GIAO ZORA, VPT2 properties, NMR spectrum      
  Ute Becker             : All parallelization in ORCA, NUMFREQ, NUMCALC 
  Giovanni Bistoni       : ED, misc. LED, open-shell LED, HFLD           
  Dmytro Bykov           : pre 5.0 version of the SCF Hessian            
  Marcos Casanova-Páez   : Triplet and SCS-CIS(D). UHF-(DLPNO)-IP/EA/STEOM-CCSD. UHF-CVS-IP/STEOM-CCSD   
  Vijay G. Chilkuri      : MRCI spin determinant printing, contributions to CSF-ICE 
  Pauline Colinet        : FMM embedding                                 
  Dipayan Datta          : RHF DLPNO-CCSD density                        
  Achintya Kumar Dutta   : EOM-CC, STEOM-CC                              
  Nicolas Foglia         : Exact transition moments, OPA infrastructure, MCD improvements    
  Dmitry Ganyushin       : Spin-Orbit,Spin-Spin,Magnetic field MRCI      
  Miquel Garcia-Rates    : C-PCM and meta-GGA Hessian, CCSD/C-PCM, Gaussian charge scheme 
  Tiago L. C. Gouveia    : GS-ROHF, GS-ROCIS                             
  Yang Guo               : DLPNO-NEVPT2, F12-NEVPT2, CIM, IAO-localization        
  Andreas Hansen         : Spin unrestricted coupled pair/coupled cluster methods 
  Ingolf Harden          : AUTO-CI MPn and infrastructure                
  Benjamin Helmich-Paris : MC-RPA, TRAH-(SCF,CASSCF), AVAS, COSX integrals, SCF dyn. polar., MC-PDFT, srDFT 
  Lee Huntington         : MR-EOM, pCC                                   
  Robert Izsak           : Overlap fitted RIJCOSX, COSX-SCS-MP3, EOM     
  Riya Kayal             : Wick's Theorem for AUTO-CI, AUTO-CI UHF-CCSDT 
  Emily Kempfer          : AUTO-CI RHF CISDT and CCSDT, approximate NEVPT4
  Christian Kollmar      : KDIIS, OOCD, Brueckner-CCSD(T), CCSD density, CASPT2, CASPT2-K, improved NEVPT2 
  Axel Koslowski         : Symmetry handling                             
  Simone Kossmann        : meta-GGA functionals, TD-DFT gradient, OOMP2, (MP2 Hessian; deprecated post 5.0) 
  Lucas Lang             : DCDCAS, Hyperfine gauge corrections, ICE-SOC+SSC
  Marvin Lechner         : AUTO-CI (C++ implementation), FIC-MRCC        
  Spencer Leger          : CASSCF response                               
  Dagmar Lenk            : GEPOL surface, SMD, ORCA-2-JSON               
  Dimitrios Liakos       : Extrapolation schemes; Compound Job, Property file
  Dimitrios Manganas     : Further ROCIS development; embedding schemes. LFT, Crystal Embedding 
  Dimitrios Pantazis     : SARC Basis sets                               
  Anastasios Papadopoulos: AUTO-CI, single reference methods and gradients 
  Taras Petrenko         : pre 6.0 DFT Hessian and TD-DFT gradient,  ECA, NRVS 
  Petra Pikulova         : Analytic Raman intensities                    
  Peter Pinski           : DLPNO-MP2, DLPNO-MP2 Gradient                 
  Shashank Vittal Rao    : ES-AILFT, MagRelax                            
  Christoph Reimann      : Effective Core Potentials                     
  Marius Retegan         : Local ZFS, SOC                                
  Christoph Riplinger    : Optimizer, TS searches, QM/MM, DLPNO-CCSD(T), (RO)-DLPNO pert. Triples 
  Michael Roemelt        : Original ROCIS implementation, recursive CI coupling coefficients
  Masaaki Saitow         : Open-shell DLPNO-CCSD energy and density      
  Barbara Sandhoefer     : DKH picture change effects                    
  Yorick L. A. Schmerwitz: GMF and freeze-and-release deltaSCF, NEB S-IDPP initial path                    
  Kantharuban Sivalingam : CASSCF convergence/infrastructure, NEVPT2, NEVPT3, NEVPT4(SD), FIC-MRCI and CEPA variants
  Bernardo de Souza      : ESD, SOC TD-DFT                               
  Georgi L. Stoychev     : AutoAux, RI-MP2 NMR, DLPNO-MP2 response, X2C  
  Van Anh Tran           : RI-MP2 g-tensors                              
  Willem Van den Heuvel  : Paramagnetic NMR                              
  Zikuan Wang            : NOTCH, Electric field optimization            
  Frank Wennmohs         : Technical directorship and infrastructure     
  Hang Xu                : AUTO-CI-Response properties                   
                                                                         
[FACCTs GmbH]                                                            
  Markus Bursch, Nicolas Foglia, Miquel Garcia-Rates, Ingolf Harden, Hagen Neugebauer, Anastasios Papadopoulos, 
  Christoph Riplinger, Bernardo de Souza, Georgi L. Stoychev                                                    
                                                                 
  APM, various basis sets, CI-OPT, improved COSX, DLPNO-Multilevel,           
  DOCKER, DRACO, updates on ESD, Fragmentator, GOAT, IRC, LR-CPCM, L-BFGS, MBIS, meta-GGA TD-DFT gradient, ML-optimized integration grids, 
  MM, NACMEs, nearIR, NEB, NEB-TS, NL-DFT gradient (VV10), 2- and 3-layer-ONIOM, interface openCOSMO-RS, QMMM,   
  Crystal-QMMM, RESP, rigid body optimization, SF, symmetry and pop. for TD-DFT, various functionals, SOLVATOR                                   
                                                                         
[Other institutions]                                                     
  V. Asgeirsson          : NEB                                           
  Christoph Bannwarth    : sTDA-DFT, sTD-DFT, PBEh-3c, B97-3c, D3        
  Giovanni Bistoni       : ETS/NOCV, ADLD/ADEX, COVALED                  
  Martin Brehm           : Molecular dynamics                            
  Ronald Cardenas        : ETS/NOCV                                      
  Martina Colucci        : COVALED                                       
  Sebastian Ehlert       : rSCAN, r2SCAN, r2SCAN-3c, D4, dhf basis sets  
  Marvin Friede          : D4 for Fr, Ra, Ac-Lr                          
  Lars Goerigk           : TD-DFT with DH, B97 family of functionals     
  Stefan Grimme          : VdW corrections, initial TS optimization, DFT functionals, gCP, sTDA/sTD-DF 
  Waldemar Hujo          : DFT-NL                                        
  H. Jonsson             : NEB                                           
  Holger Kruse           : gCP                                           
  Marcel Mueller         : wB97X-3c, vDZP basis set                      
  Hagen Neugebauer       : wr2SCAN, Native XTB                           
  Gianluca Regni         : ADLD/ADEX                                     
  Tobias Risthaus        : pre 6.0 range-separated hybrid DFT and stability analysis
  Lukas Wittmann         : regularized MP2, r2SCAN double-hybrids, wr2SCAN        
                                                                         
We gratefully acknowledge several colleagues who have allowed us to      
interface, adapt or use parts of their codes:                            
  Ed Valeev, F. Pavosevic, A. Kumar             : LibInt (2-el integral package), F12 methods 
  Garnet Chan, S. Sharma, J. Yang, R. Olivares  : DMRG                   
  Ulf Ekstrom                                   : XCFun DFT Library      
  Mihaly Kallay                                 : mrcc  (arbitrary order and MRCC methods)
  Frank Weinhold                                : gennbo (NPA and NBO analysis)           
  Simon Mueller                                 : openCOSMO-RS                            
  Christopher J. Cramer and Donald G. Truhlar   : smd solvation model                     
  S Lehtola, MJT Oliveira, MAL Marques          : LibXC Library                           
  Liviu Ungur et al                             : ANISO software                          


 Your calculation uses the libint2 library for the computation of 2-el integrals
 For citations please refer to: http://libint.valeyev.net

 Your ORCA version has been built with support for libXC version: 7.0.0
 For citations please refer to: https://libxc.gitlab.io

 This ORCA versions uses:
   CBLAS   interface :  Fast vector & matrix operations
   LAPACKE interface :  Fast linear algebra routines
   SCALAPACK package :  Parallel linear algebra routines
   Shared memory     :  Shared parallel matrices
   BLAS/LAPACK       :  OpenBLAS 0.3.29  USE64BITINT DYNAMIC_ARCH NO_AFFINITY SkylakeX SINGLE_THREADED
        Core in use  :  SkylakeX
   Copyright (c) 2011-2014, The OpenBLAS Project


  ***********************************
  * Starting time: Wed Jan 28 11:50:59 2026
  * Host name:     bp1-compute190
  * Process ID:    2551452
  * Working dir.:  /user/work/kp22738/Diss/Orca/pyruvic_anion/dyson_orbitals/2_wat/15365076_s0_freq_2_wat
  ***********************************

NOTE: MaxCore=8000 MB was set to SCF,MP2,MDCI,CIPSI,MRCI,RASCI and CIS
      => If you want to overwrite this, your respective input block should be placed after the MaxCore statement
Using LibXC functional ID 471 : wB97X-D range-separated functional
[ 1]  J.-D. Chai and M. Head-Gordon.,  Phys. Chem. Chem. Phys. 10, 6615-6620 (2008)
Using LibXC functional ID 471 : wB97X-D range-separated functional
[ 1]  J.-D. Chai and M. Head-Gordon.,  Phys. Chem. Chem. Phys. 10, 6615-6620 (2008)
Your calculation utilizes LibXC
by S. Lehtola, C. Steigemann, M. J. T. Oliveira & M. A. L. Marques
Please cite in your paper:
Lehtola, S.; Steigemann, C.; Oliveira, M.J.T.; Marques, M. A. L. Software X, 7, (2018), 1.
   

================================================================================

----- Orbital basis set information -----
Your calculation utilizes the basis: aug-cc-pVDZ 
    H, B-Ne : Obtained from the ccRepo (grant-hill.group.shef.ac.uk/ccrepo) Feb. 2017
              R. A. Kendall, T. H. Dunning, Jr., R. J. Harrison, J. Chem. Phys. 96, 6796 (1992)
         He : Obtained from the ccRepo (grant-hill.group.shef.ac.uk/ccrepo) Feb. 2017
              D. E. Woon, T. H. Dunning, Jr., J. Chem. Phys. 100, 2975 (1994)
  Li-Be, Na : Obtained from the ccRepo (grant-hill.group.shef.ac.uk/ccrepo) Feb. 2017
              B. P. Prascher, D. E. Woon, K. A. Peterson, T. H. Dunning, Jr., A. K. Wilson, Theor. Chem. Acc. 128, 69 (2011)
         Mg : Obtained from the Peterson Research Group Website (tyr0.chem.wsu.edu/~kipeters) Feb. 2017
              B. P. Prascher, D. E. Woon, K. A. Peterson, T. H. Dunning, Jr., A. K. Wilson, Theor. Chem. Acc. 128, 69 (2011)
      Al-Ar : Obtained from the ccRepo (grant-hill.group.shef.ac.uk/ccrepo) Feb. 2017
              D. E. Woon, T. H. Dunning, Jr., J. Chem. Phys. 98, 1358 (1993)
      Sc-Zn : Obtained from the ccRepo (grant-hill.group.shef.ac.uk/ccrepo) Feb. 2017
              N. B. Balabanov, K. A. Peterson, J. Chem. Phys. 123, 064107 (2005)
              N. B. Balabanov, K. A. Peterson, J. Chem. Phys. 125, 074110 (2006)
      Ga-Kr : Obtained from the ccRepo (grant-hill.group.shef.ac.uk/ccrepo) Feb. 2017
              A. K. Wilson, D. E. Woon, K. A. Peterson, T. H. Dunning, Jr., J. Chem. Phys. 110, 7667 (1999)

================================================================================
                                        WARNINGS
                       Please study these warnings very carefully!
================================================================================


================================================================================
                                       INPUT FILE
================================================================================
NAME = s0_freq_2_wat.inp
|  1> ! aug-cc-pVDZ TightSCF DEFGRID3 Engrad ANFREQ
|  2> 
|  3> %PAL NPROCS 8 END
|  4> 
|  5> %maxcore 8000
|  6> 
|  7> %method
|  8> method dft
|  9> functional hyb_gga_xc_wb97x_d
| 10> end
| 11> 
| 12> * xyz 0 1 
| 13>   C     -0.654789   -0.185921   -0.002844
| 14>   C      0.709878    0.264773    0.002326
| 15>   C     -1.785838    0.801672    0.002026
| 16>   H     -2.431910    0.645440    0.880861
| 17>   H     -2.420729    0.664561   -0.888077
| 18>   H     -1.398583    1.826979    0.015246
| 19>   O     -0.869959   -1.461628   -0.014994
| 20>   O      1.127848    1.437660    0.015865
| 21>   O      1.605790   -0.771938   -0.008399
| 22>   H      1.014909   -1.552422   -0.019915
| 23>   O      3.904848    1.364058    0.046850
| 24>   H      3.921005    0.403334    0.030279
| 25>   H      2.937417    1.529562    0.036214
| 26>   O     -3.297429   -2.619971    0.291398
| 27>   H     -3.216720   -2.894342    1.206550
| 28>   H     -2.430142   -2.177490    0.113337
| 29> * 
| 30> 
| 31>                          ****END OF INPUT****
================================================================================

                     *******************************
                     * Energy+Gradient Calculation *
                     *******************************

---------------------------------
CARTESIAN COORDINATES (ANGSTROEM)
---------------------------------
  C     -0.654789   -0.185921   -0.002844
  C      0.709878    0.264773    0.002326
  C     -1.785838    0.801672    0.002026
  H     -2.431910    0.645440    0.880861
  H     -2.420729    0.664561   -0.888077
  H     -1.398583    1.826979    0.015246
  O     -0.869959   -1.461628   -0.014994
  O      1.127848    1.437660    0.015865
  O      1.605790   -0.771938   -0.008399
  H      1.014909   -1.552422   -0.019915
  O      3.904848    1.364058    0.046850
  H      3.921005    0.403334    0.030279
  H      2.937417    1.529562    0.036214
  O     -3.297429   -2.619971    0.291398
  H     -3.216720   -2.894342    1.206550
  H     -2.430142   -2.177490    0.113337

----------------------------
CARTESIAN COORDINATES (A.U.)
----------------------------
  NO LB      ZA    FRAG     MASS         X           Y           Z
   0 C     6.0000    0    12.011   -1.237372   -0.351340   -0.005374
   1 C     6.0000    0    12.011    1.341475    0.500348    0.004396
   2 C     6.0000    0    12.011   -3.374745    1.514941    0.003829
   3 H     1.0000    0     1.008   -4.595644    1.219705    1.664586
   4 H     1.0000    0     1.008   -4.574515    1.255838   -1.678222
   5 H     1.0000    0     1.008   -2.642939    3.452490    0.028811
   6 O     8.0000    0    15.999   -1.643984   -2.762077   -0.028335
   7 O     8.0000    0    15.999    2.131324    2.716784    0.029981
   8 O     8.0000    0    15.999    3.034503   -1.458751   -0.015872
   9 H     1.0000    0     1.008    1.917900   -2.933652   -0.037634
  10 O     8.0000    0    15.999    7.379093    2.577696    0.088534
  11 H     1.0000    0     1.008    7.409626    0.762191    0.057219
  12 H     1.0000    0     1.008    5.550914    2.890453    0.068435
  13 O     8.0000    0    15.999   -6.231238   -4.951028    0.550662
  14 H     1.0000    0     1.008   -6.078720   -5.469514    2.280049
  15 H     1.0000    0     1.008   -4.592303   -4.114860    0.214176

--------------------------------
INTERNAL COORDINATES (ANGSTROEM)
--------------------------------
 C      0   0   0     0.000000000000     0.00000000     0.00000000
 C      1   0   0     1.437173556473     0.00000000     0.00000000
 C      1   2   0     1.501544368625   120.59619688     0.00000000
 H      3   1   2     1.101893109259   110.54780233   238.62045386
 H      3   1   2     1.101893533337   110.45990442   120.64909578
 H      3   1   2     1.096081952992   110.43568599   359.68109296
 O      1   2   3     1.293782864800   117.85075955   179.83810079
 O      2   1   3     1.245209275660   127.89023674     0.29123319
 O      2   1   3     1.370234664169   112.55422657   180.23345231
 H      9   2   1     0.978993487554   102.04275993     0.18404395
 O      8   2   1     2.778148002650   108.10085185   179.30765551
 H     11   8   2     0.961002731976    92.47014943     0.57001846
 H     11   8   2     0.981543396021     8.18924455   179.63525502
 O      7   1   2     2.707073173044   124.74931678   171.75617655
 H     14   7   1     0.958799547051    98.91642801   257.84925167
 H     14   7   1     0.989788813561     4.14730856    74.03584552

---------------------------
INTERNAL COORDINATES (A.U.)
---------------------------
 C      0   0   0     0.000000000000     0.00000000     0.00000000
 C      1   0   0     2.715864428647     0.00000000     0.00000000
 C      1   2   0     2.837507634633   120.59619688     0.00000000
 H      3   1   2     2.082276205355   110.54780233   238.62045386
 H      3   1   2     2.082277006747   110.45990442   120.64909578
 H      3   1   2     2.071294711488   110.43568599   359.68109296
 O      1   2   3     2.444895291231   117.85075955   179.83810079
 O      2   1   3     2.353104510416   127.89023674     0.29123319
 O      2   1   3     2.589368254485   112.55422657   180.23345231
 H      9   2   1     1.850029578369   102.04275993     0.18404395
 O      8   2   1     5.249938884509   108.10085185   179.30765551
 H     11   8   2     1.816031977385    92.47014943     0.57001846
 H     11   8   2     1.854848207039     8.18924455   179.63525502
 O      7   1   2     5.115626921538   124.74931678   171.75617655
 H     14   7   1     1.811868561255    98.91642801   257.84925167
 H     14   7   1     1.870429788050     4.14730856    74.03584552

---------------------
BASIS SET INFORMATION
---------------------
There are 3 groups of distinct atoms

 Group   1 Type C   : 18s5p2d contracted to 4s3p2d pattern {8811/311/11}
 Group   2 Type H   : 5s2p contracted to 3s2p pattern {311/11}
 Group   3 Type O   : 18s5p2d contracted to 4s3p2d pattern {8811/311/11}

Atom   0C    basis set group =>   1
Atom   1C    basis set group =>   1
Atom   2C    basis set group =>   1
Atom   3H    basis set group =>   2
Atom   4H    basis set group =>   2
Atom   5H    basis set group =>   2
Atom   6O    basis set group =>   3
Atom   7O    basis set group =>   3
Atom   8O    basis set group =>   3
Atom   9H    basis set group =>   2
Atom  10O    basis set group =>   3
Atom  11H    basis set group =>   2
Atom  12H    basis set group =>   2
Atom  13O    basis set group =>   3
Atom  14H    basis set group =>   2
Atom  15H    basis set group =>   2


           ************************************************************
           *        Program running with 8 parallel MPI-processes     *
           *              working on a common directory               *
           ************************************************************
------------------------------------------------------------------------------
                             ORCA STARTUP CALCULATIONS
------------------------------------------------------------------------------
------------------------------------------------------------------------------
                   ___                                                        
                  /   \      - P O W E R E D   B Y -                         
                 /     \                                                     
                 |  |  |   _    _      __       _____    __    __             
                 |  |  |  | |  | |    /  \     |  _  \  |  |  /  |          
                  \  \/   | |  | |   /    \    | | | |  |  | /  /          
                 / \  \   | |__| |  /  /\  \   | |_| |  |  |/  /          
                |  |  |   |  __  | /  /__\  \  |    /   |      \           
                |  |  |   | |  | | |   __   |  |    \   |  |\   \          
                \     /   | |  | | |  |  |  |  | |\  \  |  | \   \       
                 \___/    |_|  |_| |__|  |__|  |_| \__\ |__|  \__/        
                                                                              
                      - O R C A' S   B I G   F R I E N D -                    
                                      &                                       
                       - I N T E G R A L  F E E D E R -                       
                                                                              
 v1 FN, 2020, v2 2021, v3 2022-2024                                           
------------------------------------------------------------------------------


----------------------
SHARK INTEGRAL PACKAGE
----------------------

Number of atoms                             ...     16
Number of basis functions                   ...    304
Number of shells                            ...    160
Maximum angular momentum                    ...      2
Integral batch strategy                     ... SHARK/LIBINT Hybrid
RI-J (if used) integral strategy            ... SPLIT-RIJ (Revised 2003 algorithm where possible)
Printlevel                                  ...      1
Contraction scheme used                     ... PARTIAL GENERAL contraction
Prescreening option                         ... SCHWARTZ
   Thresh                                   ... 2.500e-11
   Tcut                                     ... 2.500e-12
   Tpresel                                  ... 2.500e-12 
Coulomb Range Separation                    ... NOT USED
Exchange Range Separation                   ... Long Range
   Mu parameter                             ... 2.000e-01
   Scaling (regular/separated)              ... 2.220e-01 7.780e-01
Robust (split-)RI terms used:
  metric    (central integrals)             ... YES
  density   (r.h.s.  integrals)             ... YES
  potential (l.h.s.  integrals)             ... YES
Multipole approximations                    ... NOT USED
Finite Nucleus Model                        ... NOT USED
CABS basis                                  ... NOT available
Auxiliary Coulomb fitting basis             ... NOT available
Auxiliary J/K fitting basis                 ... NOT available
Auxiliary Correlation fitting basis         ... NOT available
Auxiliary 'external' fitting basis          ... NOT available

Checking pre-screening integrals            ... done (  0.0 sec) Dimension = 160
Save PGC pre-screening integrals            ... done (  0.0 sec) Dimension = 160
Calculate PGC overlap integrals             ... done (  0.0 sec) Dimension = 112
Calculating pre-screening integrals (ORCA)  ... done (  0.1 sec) Dimension = 112
Shell pair information
Shell pair cut-off parameter TPreSel        ...   2.5e-12
Total number of shell pairs                 ...     12880
Shell pairs after pre-screening             ...     10089
Total number of primitive shell pairs       ...     18576
Primitive shell pairs kept                  ...     13235
          la=0 lb=0:   3644 shell pairs
          la=1 lb=0:   3572 shell pairs
          la=1 lb=1:    781 shell pairs
          la=2 lb=0:   1368 shell pairs
          la=2 lb=1:    598 shell pairs
          la=2 lb=2:    126 shell pairs

Checking whether 4 symmetric matrices of dimension 304 fit in memory
:Max Core in MB      =   8000.00
 MB in use           =     12.29
 MB left             =   7987.71
 MB needed           =      1.41
 Data fit in memory  = YES
Calculating Nuclear repulsion               ... done (  0.0 sec) ENN=    378.456814164708 Eh

Diagonalization of the overlap matrix:
Smallest eigenvalue                        ... 1.345e-05
Time for diagonalization                   ...    0.011 sec
Threshold for overlap eigenvalues          ... 1.000e-07
Number of eigenvalues below threshold      ... 0
Time for construction of square roots      ...    0.005 sec
Total time needed                          ...    0.019 sec

-------------------
DFT GRID GENERATION
-------------------

General Integration Accuracy     IntAcc      ... 4.959
Radial Grid Type                 RadialGrid  ... OptM3 with GC (2021)
Angular Grid (max. ang.)         AngularGrid ... 6 (Lebedev-590)
Angular grid pruning method      GridPruning ... 4 (adaptive)
Weight generation scheme         WeightScheme... mBecke (2022)
Basis function cutoff            BFCut       ... 1.0000e-11
Integration weight cutoff        WCut        ... 1.0000e-14
Partially contracted basis set               ... off
Rotationally invariant grid construction     ... off
Angular grids for H and He will be reduced by one unit
Diffuse basis detected: some atoms will have their outermost
                        angular grid increased by 1.

Total number of grid points                  ...   196742
Total number of batches                      ...     3083
Average number of points per batch           ...       63
Average number of grid points per atom       ...    12296

---------------------
SHARK GRID GENERATION
---------------------

General Integration Accuracy     IntAcc      ... 4.959
Radial Grid Type                 RadialGrid  ... OptM3 with GC (2021)
Angular Grid (max. ang.)         AngularGrid ... 6 (Lebedev-590)
Angular grid pruning method      GridPruning ... 4 (adaptive)
Weight generation scheme         WeightScheme... mBecke (2022)
Basis function cutoff            BFCut       ... 1.0000e-11
Integration weight cutoff        WCut        ... 1.0000e-14
Partially contracted basis set               ... off
Rotationally invariant grid construction     ... off
Angular grids for H and He will be reduced by one unit
Diffuse basis detected: some atoms will have their outermost
                        angular grid increased by 1.
Steep s-basis detected: some atoms will have their radial
                        grid points doubled.

Total number of grid points                  ...   315616
Total number of batches                      ...     4939
Average number of points per batch           ...       63
Average number of grid points per atom       ...    19726
Grids setup in  11.1 sec
Initializing property integral containers    ... done (  0.0 sec)

SHARK setup successfully completed in  11.5 seconds

Maximum memory used throughout the entire STARTUP-calculation: 72.9 MB


           ************************************************************
           *        Program running with 8 parallel MPI-processes     *
           *              working on a common directory               *
           ************************************************************
-------------------------------------------------------------------------------
                                 ORCA GUESS
                   Start orbitals & Density for SCF / CASSCF
-------------------------------------------------------------------------------

------------
SCF SETTINGS
------------
Hamiltonian:
 Density Functional     Method          .... DFT(GTOs)
  Functional kind                       .... Exchange-Correlation
  Functional name                       .... wB97X-D range-separated functional
  Functional family                     .... Hybrid GGA
  Functional refs                              
    [ 0] J.-D. Chai and M. Head-Gordon.,  Phys. Chem. Chem. Phys. 10, 6615-6620 (2008), doi: 10.1039/B810189B
  Fraction of HF Exchange (short range) .... 0.2220
  Fraction of HF Exchange ( int64 range )  .... 1.0000
  Range separation parameter mu         .... 0.2000
  Functional external parameters        .... 18
    Parameter  0 _cx0       =  7.779640e-01 : u^0 coefficient for exchange
    Parameter  1 _cx1       =  6.611600e-01 : u^1 coefficient for exchange
    Parameter  2 _cx2       =  5.745410e-01 : u^2 coefficient for exchange
    Parameter  3 _cx3       = -5.256710e+00 : u^3 coefficient for exchange
    Parameter  4 _cx4       =  1.163860e+01 : u^4 coefficient for exchange
    Parameter  5 _css0      =  1.000000e+00 : u^0 coefficient for same-spin correlation
    Parameter  6 _css1      = -6.905390e+00 : u^1 coefficient for same-spin correlation
    Parameter  7 _css2      =  3.133430e+01 : u^2 coefficient for same-spin correlation
    Parameter  8 _css3      = -5.105330e+01 : u^3 coefficient for same-spin correlation
    Parameter  9 _css4      =  2.644230e+01 : u^4 coefficient for same-spin correlation
    Parameter 10 _cos0      =  1.000000e+00 : u^0 coefficient for opposite-spin correlation
    Parameter 11 _cos1      =  1.794130e+00 : u^1 coefficient for opposite-spin correlation
    Parameter 12 _cos2      = -1.204770e+01 : u^2 coefficient for opposite-spin correlation
    Parameter 13 _cos3      =  1.408470e+01 : u^3 coefficient for opposite-spin correlation
    Parameter 14 _cos4      = -8.508090e+00 : u^4 coefficient for opposite-spin correlation
    Parameter 15 _alpha     =  1.000000e+00 : fraction of HF exchange
    Parameter 16 _beta      = -7.779640e-01 : fraction of short-range exchange
    Parameter 17 _omega     =  2.000000e-01 : range-separation constant
 Long-range corrected/Screened/Range-Separated Hybrid DFT is turned on
   Amount of maximum screened exact exchange              ....  0.777964
   Range separation parameter mu (erf(mu*r12)/r12)        ....  0.200000


General Settings:
 Integral files         IntName         .... s0_freq_2_wat
 Hartree-Fock type      HFTyp           .... RHF
 Total Charge           Charge          ....    0
 Multiplicity           Mult            ....    1
 Number of Electrons    NEL             ....   66
 Basis Dimension        Dim             ....  256
 Nuclear Repulsion      ENuc            ....    378.4568141647 Eh

Convergence Acceleration:
 AO-DIIS                CNVDIIS         .... on
   Start iteration      DIISMaxIt       ....    12
   Startup error        DIISStart       ....  0.200000
   # of expansion vecs  DIISMaxEq       ....     5
   Bias factor          DIISBfac        ....   1.050
   Max. coefficient     DIISMaxC        ....  10.000
 MO-DIIS                CNVKDIIS        .... off
 Trust-Rad. Augm. Hess. CNVTRAH         .... auto
   Auto Start mean grad. ratio tolernc. ....  1.125000
   Auto Start start iteration           ....    50
   Auto Start num. interpolation iter.  ....    10
   Max. Number of Micro iterations      ....    24
   Max. Number of Macro iterations      .... Maxiter - #DIIS iter
   Number of Davidson start vectors     ....     2
   Converg. threshold    (grad. norm)   ....   1.000e-05
   Grad. Scal. Fac. for Micro threshold ....   0.100
   Minimum threshold for Micro iter.    ....   1.000e-02
   NR start threshold (gradient norm)   ....   1.000e-04
   Initial trust radius                 ....   0.400
   Minimum AH scaling param. (alpha)    ....   1.000
   Maximum AH scaling param. (alpha)    .... 1000.000
   Quad. conv. algorithm                .... NR
   White noise on init. David. guess    .... on
   Maximum white noise                  ....   0.010
   Pseudo random numbers                .... off
   Inactive MOs                         .... canonical
   Orbital update algorithm             .... Taylor
   Preconditioner                       .... Diag
   Full preconditioner red. dimension   ....   250
 SOSCF                 CNVSOSCF           .... on
   Start iteration     SOSCFMaxIt         ....   150
   Startup grad/error  SOSCFStart         ....  0.003300
   Hessian update      SOSCFHessUp        .... L-BFGS
   Autom. constraints  SOSCFAutoConstrain .... off
 Level Shifting         CNVShift        .... on
   Level shift para.    LevelShift      ....    0.2500
   Turn off err/grad.   ShiftErr        ....    0.0010
 Zerner damping         CNVZerner       .... off
 Static damping         CNVDamp         .... on
   Fraction old density DampFac         ....    0.7000
   Max. Damping (<1)    DampMax         ....    0.9800
   Min. Damping (>=0)   DampMin         ....    0.0000
   Turn off err/grad.   DampErr         ....    0.1000

SCF Procedure:
 Maximum # iterations   MaxIter         ....   125
 SCF integral mode      SCFMode         .... Direct
   Integral package                     .... SHARK and LIBINT hybrid scheme
 Reset frequency        DirectResetFreq ....    20
 Integral Threshold     Thresh          ....  2.500e-11 Eh
 Primitive CutOff       TCut            ....  2.500e-12 Eh

Convergence Tolerance:
 Convergence Check Mode ConvCheckMode   .... Total+1el-Energy
 Convergence forced     ConvForced      .... 0
 Energy Change          TolE            ....  1.000e-08 Eh
 1-El. energy change                    ....  1.000e-05 Eh
 Orbital Gradient       TolG            ....  1.000e-05
 Orbital Rotation angle TolX            ....  1.000e-05
 DIIS Error             TolErr          ....  5.000e-07

------------------------------
INITIAL GUESS: MODEL POTENTIAL
------------------------------
Loading Hartree-Fock densities                     ... done
Calculating cut-offs                               ... done
Initializing the effective Hamiltonian             ... done
Setting up the integral package (SHARK)            ... done
Starting the Coulomb interaction                   ... done (   0.1 sec)
Making the grid                                    ... done (   0.2 sec)
Mapping shells                                     ... done
Starting the XC term evaluation                    ... done (   0.3 sec)
  promolecular density results
     # of electrons  =     65.994447606
     EX+EC           =    -42.402848093
Transforming the Hamiltonian                       ... done (   0.0 sec)
Diagonalizing the Hamiltonian                      ... done (   0.0 sec)
Back transforming the eigenvectors                 ... done (   0.0 sec)
Now organizing SCF variables                       ... done
                      ------------------
                      INITIAL GUESS DONE (   0.6 sec)
                      ------------------
             **** ENERGY FILE WAS UPDATED (s0_freq_2_wat.en.tmp) ****
Finished Guess after   1.4 sec
Maximum memory used throughout the entire GUESS-calculation: 15.9 MB


           ************************************************************
           *        Program running with 8 parallel MPI-processes     *
           *              working on a common directory               *
           ************************************************************

-------------------------------------------------------------------------------------------
                                      ORCA LEAN-SCF
                              memory conserving SCF solver
-------------------------------------------------------------------------------------------

----------------------------------------D-I-I-S--------------------------------------------
Iteration    Energy (Eh)           Delta-E    RMSDP     MaxDP     DIISErr   Damp  Time(sec)
-------------------------------------------------------------------------------------------
               ***  Starting incremental Fock matrix formation  ***
    1    -495.0499881125775232     0.00e+00  9.16e-03  2.11e-01  1.24e-01  0.700  12.2
    2    -495.0955763961287062    -4.56e-02  6.65e-03  1.48e-01  6.66e-02  0.700  11.9
                               ***Turning on AO-DIIS***
    3    -495.1201736284335198    -2.46e-02  3.29e-03  5.29e-02  4.11e-02  0.700  11.1
    4    -495.1353694415725499    -1.52e-02  7.32e-03  1.24e-01  2.88e-02  0.000  10.3
    5    -495.1694791541518157    -3.41e-02  7.53e-04  1.06e-02  4.19e-03  0.000  10.7
    6    -495.1696369670289073    -1.58e-04  2.79e-04  3.41e-03  3.45e-03  0.000  11.4
                              *** Initializing SOSCF ***
---------------------------------------S-O-S-C-F--------------------------------------
Iteration    Energy (Eh)           Delta-E    RMSDP     MaxDP     MaxGrad    Time(sec)
--------------------------------------------------------------------------------------
    7    -495.1696795351051037    -4.26e-05  1.65e-04  2.38e-03  1.64e-03    11.5
               *** Restarting incremental Fock matrix formation ***
    8    -495.1696932836024985    -1.37e-05  1.08e-04  1.96e-03  2.80e-04    12.5
    9    -495.1696965805653576    -3.30e-06  8.91e-05  1.54e-03  2.43e-04    11.5
   10    -495.1696970666293396    -4.86e-07  4.64e-05  6.03e-04  1.75e-04    10.9
   11    -495.1696974766796870    -4.10e-07  2.18e-05  3.60e-04  3.50e-05    10.9
   12    -495.1696975056859742    -2.90e-08  1.42e-05  2.78e-04  1.54e-05     9.6
   13    -495.1696975224485300    -1.68e-08  4.50e-05  1.19e-03  5.21e-06     9.7
   14    -495.1696975222924380     1.56e-10  1.42e-05  2.53e-04  6.11e-06     9.3
                 **** Energy Check signals convergence ****

               *****************************************************
               *                     SUCCESS                       *
               *           SCF CONVERGED AFTER  14 CYCLES          *
               *****************************************************

             **** ENERGY FILE WAS UPDATED (s0_freq_2_wat.en.tmp) ****

----------------
TOTAL SCF ENERGY
----------------

Total Energy       :       -495.16969752255210 Eh          -13474.25249 eV

Components:
Nuclear Repulsion  :        378.45681416470819 Eh           10298.33347 eV
Electronic Energy  :       -873.62651168726029 Eh          -23772.58596 eV
One Electron Energy:      -1427.63117280607594 Eh          -38847.81920 eV
Two Electron Energy:        554.00466111881565 Eh           15075.23324 eV

Virial components:
Potential Energy   :       -987.13110454509012 Eh          -26861.20295 eV
Kinetic Energy     :        491.96140702253803 Eh           13386.95046 eV
Virial Ratio       :          2.00652142719778

DFT components:
N(Alpha)           :       33.000045897456 electrons
N(Beta)            :       33.000045897456 electrons
N(Total)           :       66.000091794911 electrons
E(XC)              :      -43.153912920363 Eh       

---------------
SCF CONVERGENCE
---------------

  Last Energy change         ...   -1.5609e-10  Tolerance :   1.0000e-08
  Last MAX-Density change    ...    2.5322e-04  Tolerance :   1.0000e-07
  Last RMS-Density change    ...    1.4209e-05  Tolerance :   5.0000e-09
  Last DIIS Error            ...    1.6384e-03  Tolerance :   5.0000e-07
  Last Orbital Gradient      ...    6.1147e-06  Tolerance :   1.0000e-05
  Last Orbital Rotation      ...    7.3679e-06  Tolerance :   1.0000e-05


----------------
ORBITAL ENERGIES
----------------

  NO   OCC          E(Eh)            E(eV) 
   0   2.0000     -19.370466      -527.0972 
   1   2.0000     -19.364652      -526.9390 
   2   2.0000     -19.337813      -526.2086 
   3   2.0000     -19.260153      -524.0954 
   4   2.0000     -19.242402      -523.6124 
   5   2.0000     -10.502442      -285.7860 
   6   2.0000     -10.486949      -285.3644 
   7   2.0000     -10.359605      -281.8992 
   8   2.0000      -1.269242       -34.5378 
   9   2.0000      -1.207142       -32.8480 
  10   2.0000      -1.177603       -32.0442 
  11   2.0000      -1.099108       -29.9082 
  12   2.0000      -1.082926       -29.4679 
  13   2.0000      -0.930044       -25.3078 
  14   2.0000      -0.839244       -22.8370 
  15   2.0000      -0.735598       -20.0167 
  16   2.0000      -0.666738       -18.1429 
  17   2.0000      -0.640539       -17.4299 
  18   2.0000      -0.620268       -16.8784 
  19   2.0000      -0.610306       -16.6073 
  20   2.0000      -0.585506       -15.9324 
  21   2.0000      -0.569564       -15.4986 
  22   2.0000      -0.560585       -15.2543 
  23   2.0000      -0.552259       -15.0277 
  24   2.0000      -0.523587       -14.2475 
  25   2.0000      -0.502713       -13.6795 
  26   2.0000      -0.486128       -13.2282 
  27   2.0000      -0.469384       -12.7726 
  28   2.0000      -0.462249       -12.5784 
  29   2.0000      -0.444521       -12.0960 
  30   2.0000      -0.412947       -11.2369 
  31   2.0000      -0.391033       -10.6405 
  32   2.0000      -0.372777       -10.1438 
  33   0.0000      -0.102845        -2.7986 
  34   0.0000       0.020687         0.5629 
  35   0.0000       0.038055         1.0355 
  36   0.0000       0.042793         1.1645 
  37   0.0000       0.051171         1.3924 
  38   0.0000       0.066178         1.8008 
  39   0.0000       0.072025         1.9599 
  40   0.0000       0.074741         2.0338 
  41   0.0000       0.075483         2.0540 
  42   0.0000       0.092106         2.5063 
  43   0.0000       0.100719         2.7407 
*Only the first 10 virtual orbitals were printed.

                    ********************************
                    * MULLIKEN POPULATION ANALYSIS *
                    ********************************

-----------------------
MULLIKEN ATOMIC CHARGES
-----------------------
   0 C :    0.222128
   1 C :    0.976014
   2 C :    0.554218
   3 H :    0.012866
   4 H :    0.033619
   5 H :   -0.222501
   6 O :   -0.806295
   7 O :   -0.566355
   8 O :   -0.503946
   9 H :    0.229466
  10 O :   -0.302656
  11 H :    0.116776
  12 H :    0.192262
  13 O :   -0.264694
  14 H :    0.093460
  15 H :    0.235639
Sum of atomic charges:    0.0000000

--------------------------------
MULLIKEN REDUCED ORBITAL CHARGES
--------------------------------
  0 C s       :     3.193218  s :     3.193218
      pz      :     0.651480  p :     2.241151
      px      :     0.780639
      py      :     0.809032
      dz2     :     0.009791  d :     0.343503
      dxz     :     0.067516
      dyz     :     0.022461
      dx2y2   :     0.170934
      dxy     :     0.072800

  1 C s       :     3.070627  s :     3.070627
      pz      :     0.730631  p :     1.826056
      px      :     0.488908
      py      :     0.606516
      dz2     :    -0.004060  d :     0.127303
      dxz     :     0.007345
      dyz     :     0.053175
      dx2y2   :     0.081828
      dxy     :    -0.010985

  2 C s       :     3.007251  s :     3.007251
      pz      :     0.875375  p :     2.481368
      px      :     0.980375
      py      :     0.625617
      dz2     :    -0.008897  d :    -0.042837
      dxz     :    -0.018255
      dyz     :     0.003723
      dx2y2   :     0.006636
      dxy     :    -0.026044

  3 H s       :     0.990795  s :     0.990795
      pz      :     0.009284  p :    -0.003662
      px      :    -0.011016
      py      :    -0.001929

  4 H s       :     0.973537  s :     0.973537
      pz      :     0.007871  p :    -0.007155
      px      :    -0.009797
      py      :    -0.005230

  5 H s       :     1.213267  s :     1.213267
      pz      :    -0.010796  p :     0.009234
      px      :     0.023828
      py      :    -0.003798

  6 O s       :     4.140144  s :     4.140144
      pz      :     1.387474  p :     4.632180
      px      :     1.940679
      py      :     1.304027
      dz2     :     0.001027  d :     0.033971
      dxz     :     0.000649
      dyz     :     0.016344
      dx2y2   :     0.008787
      dxy     :     0.007165

  7 O s       :     4.059325  s :     4.059325
      pz      :     1.388007  p :     4.469886
      px      :     1.775695
      py      :     1.306184
      dz2     :     0.001827  d :     0.037144
      dxz     :     0.001891
      dyz     :     0.016868
      dx2y2   :     0.007092
      dxy     :     0.009467

  8 O s       :     3.990041  s :     3.990041
      pz      :     1.753692  p :     4.492881
      px      :     1.511729
      py      :     1.227460
      dz2     :     0.000930  d :     0.021024
      dxz     :     0.009664
      dyz     :     0.004464
      dx2y2   :     0.003775
      dxy     :     0.002192

  9 H s       :     0.699416  s :     0.699416
      pz      :     0.024392  p :     0.071118
      px      :     0.027942
      py      :     0.018784

 10 O s       :     3.808108  s :     3.808108
      pz      :     1.902895  p :     4.502925
      px      :     1.338417
      py      :     1.261614
      dz2     :    -0.001893  d :    -0.008376
      dxz     :     0.001842
      dyz     :     0.001494
      dx2y2   :    -0.010955
      dxy     :     0.001137

 11 H s       :     0.780723  s :     0.780723
      pz      :     0.047291  p :     0.102500
      px      :     0.023818
      py      :     0.031392

 12 H s       :     0.745945  s :     0.745945
      pz      :     0.046069  p :     0.061793
      px      :     0.000778
      py      :     0.014947

 13 O s       :     3.770084  s :     3.770084
      pz      :     1.314054  p :     4.502662
      px      :     1.459502
      py      :     1.729106
      dz2     :    -0.006882  d :    -0.008052
      dxz     :     0.001212
      dyz     :    -0.000802
      dx2y2   :    -0.000016
      dxy     :    -0.001563

 14 H s       :     0.796017  s :     0.796017
      pz      :     0.038458  p :     0.110523
      px      :     0.031435
      py      :     0.040630

 15 H s       :     0.697683  s :     0.697683
      pz      :     0.029618  p :     0.066678
      px      :     0.011165
      py      :     0.025895



                     *******************************
                     * LOEWDIN POPULATION ANALYSIS *
                     *******************************

----------------------
LOEWDIN ATOMIC CHARGES
----------------------
   0 C :   -0.197489
   1 C :   -0.309326
   2 C :    0.215831
   3 H :    0.022750
   4 H :    0.025243
   5 H :   -0.002295
   6 O :    0.165850
   7 O :    0.162406
   8 O :    0.278769
   9 H :   -0.085832
  10 O :    0.197356
  11 H :   -0.127151
  12 H :   -0.206123
  13 O :    0.198097
  14 H :   -0.115558
  15 H :   -0.222528

-------------------------------
LOEWDIN REDUCED ORBITAL CHARGES
-------------------------------
  0 C s       :     2.604531  s :     2.604531
      pz      :     0.569683  p :     2.444672
      px      :     0.956707
      py      :     0.918282
      dz2     :     0.098284  d :     1.148286
      dxz     :     0.128502
      dyz     :     0.168284
      dx2y2   :     0.371069
      dxy     :     0.382148

  1 C s       :     2.569873  s :     2.569873
      pz      :     0.640290  p :     2.428783
      px      :     0.899593
      py      :     0.888899
      dz2     :     0.118675  d :     1.310670
      dxz     :     0.097893
      dyz     :     0.237144
      dx2y2   :     0.410118
      dxy     :     0.446841

  2 C s       :     2.602002  s :     2.602002
      pz      :     0.944967  p :     2.798756
      px      :     0.915472
      py      :     0.938317
      dz2     :     0.066295  d :     0.383412
      dxz     :     0.083701
      dyz     :     0.027914
      dx2y2   :     0.104647
      dxy     :     0.100855

  3 H s       :     0.706014  s :     0.706014
      pz      :     0.115512  p :     0.271235
      px      :     0.086777
      py      :     0.068947

  4 H s       :     0.705384  s :     0.705384
      pz      :     0.116346  p :     0.269372
      px      :     0.085747
      py      :     0.067280

  5 H s       :     0.712774  s :     0.712774
      pz      :     0.072753  p :     0.289522
      px      :     0.090849
      py      :     0.125919

  6 O s       :     3.351873  s :     3.351873
      pz      :     1.255685  p :     4.297915
      px      :     1.639620
      py      :     1.402610
      dz2     :     0.023997  d :     0.184361
      dxz     :     0.001515
      dyz     :     0.025903
      dx2y2   :     0.065939
      dxy     :     0.067008

  7 O s       :     3.359962  s :     3.359962
      pz      :     1.271896  p :     4.303363
      px      :     1.588525
      py      :     1.442941
      dz2     :     0.021403  d :     0.174269
      dxz     :     0.004040
      dyz     :     0.030949
      dx2y2   :     0.059974
      dxy     :     0.057903

  8 O s       :     3.242523  s :     3.242523
      pz      :     1.551002  p :     4.300138
      px      :     1.477860
      py      :     1.271276
      dz2     :     0.024160  d :     0.178570
      dxz     :     0.014081
      dyz     :     0.017798
      dx2y2   :     0.045677
      dxy     :     0.076854

  9 H s       :     0.582757  s :     0.582757
      pz      :     0.110822  p :     0.503075
      px      :     0.223811
      py      :     0.168442

 10 O s       :     3.262725  s :     3.262725
      pz      :     1.708319  p :     4.486366
      px      :     1.419184
      py      :     1.358863
      dz2     :     0.010598  d :     0.053553
      dxz     :     0.000386
      dyz     :     0.000308
      dx2y2   :     0.040207
      dxy     :     0.002055

 11 H s       :     0.636041  s :     0.636041
      pz      :     0.146976  p :     0.491110
      px      :     0.117814
      py      :     0.226320

 12 H s       :     0.608765  s :     0.608765
      pz      :     0.148209  p :     0.597358
      px      :     0.335640
      py      :     0.113509

 13 O s       :     3.261104  s :     3.261104
      pz      :     1.388806  p :     4.487886
      px      :     1.488447
      py      :     1.610633
      dz2     :     0.027217  d :     0.052913
      dxz     :     0.002792
      dyz     :     0.005330
      dx2y2   :     0.006263
      dxy     :     0.011311

 14 H s       :     0.638651  s :     0.638651
      pz      :     0.216053  p :     0.476907
      px      :     0.119799
      py      :     0.141054

 15 H s       :     0.603106  s :     0.603106
      pz      :     0.118201  p :     0.619422
      px      :     0.320432
      py      :     0.180790



                      *****************************
                      * MAYER POPULATION ANALYSIS *
                      *****************************

  NA   - Mulliken gross atomic population
  ZA   - Total nuclear charge
  QA   - Mulliken gross atomic charge
  VA   - Mayer's total valence
  BVA  - Mayer's bonded valence
  FA   - Mayer's free valence

  ATOM       NA         ZA         QA         VA         BVA        FA
  0 C      5.7779     6.0000     0.2221     3.8006     3.8006     0.0000
  1 C      5.0240     6.0000     0.9760     2.5512     2.5512    -0.0000
  2 C      5.4458     6.0000     0.5542     3.8503     3.8503     0.0000
  3 H      0.9871     1.0000     0.0129     0.8917     0.8917     0.0000
  4 H      0.9664     1.0000     0.0336     0.8778     0.8778     0.0000
  5 H      1.2225     1.0000    -0.2225     0.8593     0.8593     0.0000
  6 O      8.8063     8.0000    -0.8063     1.7429     1.7429    -0.0000
  7 O      8.5664     8.0000    -0.5664     1.8352     1.8352     0.0000
  8 O      8.5039     8.0000    -0.5039     1.8914     1.8914     0.0000
  9 H      0.7705     1.0000     0.2295     0.9683     0.9683     0.0000
 10 O      8.3027     8.0000    -0.3027     1.9278     1.9278     0.0000
 11 H      0.8832     1.0000     0.1168     1.0221     1.0221    -0.0000
 12 H      0.8077     1.0000     0.1923     0.9366     0.9366     0.0000
 13 O      8.2647     8.0000    -0.2647     1.9693     1.9693    -0.0000
 14 H      0.9065     1.0000     0.0935     1.0573     1.0573    -0.0000
 15 H      0.7644     1.0000     0.2356     0.8941     0.8941    -0.0000

  Mayer bond orders larger than 0.100000
B(  0-C ,  1-C ) :   0.4683 B(  0-C ,  2-C ) :   1.3887 B(  0-C ,  3-H ) :   0.1614 
B(  0-C ,  4-H ) :   0.1581 B(  0-C ,  5-H ) :   0.2523 B(  0-C ,  6-O ) :   1.3932 
B(  0-C ,  7-O ) :  -0.1059 B(  0-C ,  8-O ) :   0.1675 B(  1-C ,  5-H ) :  -0.1397 
B(  1-C ,  7-O ) :   1.6817 B(  1-C ,  8-O ) :   0.7156 B(  2-C ,  3-H ) :   0.8504 
B(  2-C ,  4-H ) :   0.8463 B(  2-C ,  5-H ) :   0.8103 B(  6-O ,  9-H ) :   0.1036 
B(  8-O ,  9-H ) :   0.9241 B( 10-O , 11-H ) :   1.0467 B( 10-O , 12-H ) :   0.9113 
B( 13-O , 14-H ) :   1.0710 B( 13-O , 15-H ) :   0.8547 

-------
TIMINGS
-------

Total SCF time: 0 days 0 hours 2 min 43 sec 

Total time                  ....     163.659 sec
Sum of individual times     ....     154.440 sec  ( 94.4%)

SCF preparation             ....       0.726 sec  (  0.4%)
Fock matrix formation       ....     152.629 sec  ( 93.3%)
  Startup                   ....       0.387 sec  (  0.3% of F)
  Coulomb+Exchange Fock     ....     145.005 sec  ( 95.0% of F)
  XC integration            ....      15.958 sec  ( 10.5% of F)
    XC Preparation          ....       0.000 sec  (  0.0% of XC)
    Basis function eval.    ....       5.194 sec  ( 32.5% of XC)
    Density eval.           ....       2.694 sec  ( 16.9% of XC)
    XC-Functional eval.     ....       1.214 sec  (  7.6% of XC)
    XC-Potential eval.      ....       3.660 sec  ( 22.9% of XC)
Diagonalization             ....       0.000 sec  (  0.0%)
Density matrix formation    ....       0.148 sec  (  0.1%)
Total Energy calculation    ....       0.059 sec  (  0.0%)
Population analysis         ....       0.170 sec  (  0.1%)
Orbital Transformation      ....       0.064 sec  (  0.0%)
Orbital Orthonormalization  ....       0.000 sec  (  0.0%)
DIIS solution               ....       0.363 sec  (  0.2%)
SOSCF solution              ....       0.282 sec  (  0.2%)
Finished LeanSCF after 163.7 sec

Maximum memory used throughout the entire LEANSCF-calculation: 18.4 MB


           ************************************************************
           *        Program running with 8 parallel MPI-processes     *
           *              working on a common directory               *
           ************************************************************

------------------------------------------------------------------------------
                         ORCA PROPERTY INTEGRAL CALCULATIONS
------------------------------------------------------------------------------

GBWName                                   ... s0_freq_2_wat.gbw
Number of atoms                           ...     16
Number of basis functions                 ...    304
Max core memory                           ...   8000 MB

Dipole integrals                          ... YES
Quadrupole integrals                      ...  NO
Linear momentum integrals                 ...  NO
Angular momentum integrals                ...  NO
Higher moments length integrals           ...  NO
Higher moments velocity integrals         ...  NO
Kinetic energy integrals                  ...  NO
GIAO right hand sides                     ...  NO
GIAO dipole derivative integrals          ...  NO
SOC integrals                             ...  NO
EPR diamagnetic integrals (GIAO)          ...  NO
EPR gauge integrals                       ...  NO
Field gradient integrals                  ...  NO (   0 nuclei)
Spin-dipole/Fermi contact integrals       ...  NO (   0 nuclei)
Contact density integrals                 ...  NO (   0 nuclei)
Nucleus-orbit integrals                   ...  NO (   0 nuclei)
Geometric perturbations                   ... YES (  16 nuclei)

Choice of electric origin   ... Center of mass
Position of electric origin ... (  0.2237, -0.3627,  0.1020) 
Choice of magnetic origin   ... GIAO
Position of magnetic origin ... (  0.0000,  0.0000,  0.0000) 

Calculating integrals                     ... Electric Dipole (Length)     done (  0.0 sec)
Calculating integrals                     ... Geometrical perturbation right hand sides

-----------------------
GEOMETRIC PERTURBATIONS (16 nuclei)
-----------------------

MaxCore                            ...   8000 MB
Number of batches                  ...      1

BATCH   0: Atoms    0 -   15 ( 48 perturbations)
   => H(core) and overlap derivative integrals     ... done (     0.4 sec)
   => Making and storing internal U-coefficients   ... done (     0.0 sec)
   => Exact two electron derivative integrals      ... done (    82.7 sec)
   => Exact two-electron response operators        ... done (   273.7 sec)
   => XC derivative integrals                      ... done (    78.6 sec)
   => XC response operators                        ... done (    21.7 sec)
   => Completing and storing right hand sides      ... done (     0.0 sec)
   => Total time for right hand sides = 375.9 sec

  geometrical perturbations done (375.9 sec)

Property integrals calculated in 376.0 sec

Maximum memory used throughout the entire PROPINT-calculation: 91.3 MB

-------------------------   --------------------
FINAL SINGLE POINT ENERGY      -495.169697522552
-------------------------   --------------------



           ************************************************************
           *        Program running with 8 parallel MPI-processes     *
           *              working on a common directory               *
           ************************************************************
------------------------------------------------------------------------------
                         ORCA SCF GRADIENT CALCULATION
------------------------------------------------------------------------------

Nuc. rep. gradient        (SHARK) ... done (  0.0 sec)
HCore & Overlap gradient  (SHARK) ... done (  0.1 sec)
Two-electron gradient     (SHARK) ... done ( 33.1 sec)
XC gradient                       ... done (  4.5 sec)

------------------
CARTESIAN GRADIENT
------------------

   1   C   :    0.088551905    0.082238757    0.001294712
   2   C   :   -0.112661550   -0.033741327   -0.000545648
   3   C   :   -0.004824351   -0.003457242   -0.000101911
   4   H   :   -0.002785408    0.002843294    0.001784898
   5   H   :   -0.002812911    0.002808547   -0.001687934
   6   H   :    0.000218283    0.001337347    0.000031061
   7   O   :   -0.030110672   -0.089786594    0.000235756
   8   O   :    0.040192365    0.050654116    0.000625710
   9   O   :    0.030880602   -0.021548871   -0.000149407
  10   H   :   -0.007385831    0.005518233    0.000083905
  11   O   :    0.013903122    0.000923962    0.000151120
  12   H   :   -0.004773991    0.000359002   -0.000024081
  13   H   :   -0.016505341   -0.002103238   -0.000196167
  14   O   :   -0.014425788   -0.009778088    0.002893480
  15   H   :    0.002200259    0.002243722   -0.001445503
  16   H   :    0.020339307    0.011488381   -0.002949991

Difference to translation invariance:
           :    0.0000000000    0.0000000000    0.0000000000

Difference to rotation invariance:
           :    0.0000243435   -0.0000478150    0.0000905873

Norm of the Cartesian gradient     ...    0.2110400011
RMS gradient                       ...    0.0304610004
MAX gradient                       ...    0.1126615498

-------
TIMINGS
-------

Total SCF gradient time     ....       37.758 sec

Densities                   ....       0.025 sec  (  0.1%)
One electron gradient       ....       0.124 sec  (  0.3%)
Two electron gradient       ....      33.079 sec  ( 87.6%)
XC gradient                 ....       4.529 sec  ( 12.0%)

Maximum memory used throughout the entire SCFGRAD-calculation: 37.6 MB


           ************************************************************
           *        Program running with 8 parallel MPI-processes     *
           *              working on a common directory               *
           ************************************************************
------------------------------------------------------------------------------
                            ORCA SCF RESPONSE CALCULATION
------------------------------------------------------------------------------

GBWName                                 ... s0_freq_2_wat.gbw
Number of atoms                         ...     16
Number of basis functions               ...    304
Max core memory                         ...   8000 MB

Electric field perturbation             ...  NO
Quadrupolar field perturbation          ...  NO
Magnetic field perturbation (no GIAO)   ...  NO
Magnetic field perturbation (with GIAO) ...  NO
Linear momentum (velocity) perturbation ...  NO
Spin-orbit coupling perturbation        ...  NO
Choice of electric origin               ... Center of mass
Position of electric origin             ...     0.223707    -0.362709     0.101951
Choice of magnetic origin               ... GIAO
Position of magnetic origin             ...     0.000000     0.000000     0.000000
Nuclear geometric perturbations         ... YES (  48 perturbations)
Nucleus-orbit perturbations             ...  NO (   0 perturbations)
Spin-dipole/Fermi contact perturbations ...  NO (   0 perturbations)

Total number of real perturbations      ...     48
Total number of imaginary perturbations ...      0
Total number of triplet perturbations   ...      0
Total number of SOC perturbations       ...      0

Using XC Grid                  ... (s0_freq_2_wat.grid_cpscf.tmp) 
Recalculating density on grid  ... (s0_freq_2_wat.grho_cpscf0.tmp) done
Calculating the xc-kernel      ... (s0_freq_2_wat.fxc_cpscf0.tmp) done

                                **********************
                                * REAL PERTURBATIONS *
                                **********************



-------------------
SHARK CP-SCF DRIVER
-------------------

Dimension of the orbital basis          ...    256
Dimension of the CPSCF-problem          ...   7359
Number of operators                     ...      1
Max. number of iterations               ...    128
Convergence Tolerance                   ... 1.0e-04
Number of perturbations                 ...     48
Perturbation type                       ... REAL

----------------------------
POPLE LINEAR EQUATION SOLVER
----------------------------

  ITERATION   0:   ||err||_max =   3.6006e-01 ( 300.1 sec   0/ 48 done)
  ITERATION   1:   ||err||_max =   7.0741e-02 ( 248.9 sec   0/ 48 done)
  ITERATION   2:   ||err||_max =   2.7717e-02 ( 251.9 sec   0/ 48 done)
  ITERATION   3:   ||err||_max =   1.2593e-02 ( 357.8 sec   0/ 48 done)
  ITERATION   4:   ||err||_max =   4.0462e-03 ( 356.6 sec   0/ 48 done)
  ITERATION   5:   ||err||_max =   2.0886e-03 ( 251.9 sec   2/ 48 done)
  ITERATION   6:   ||err||_max =   7.6157e-04 ( 229.9 sec  12/ 48 done)
  ITERATION   7:   ||err||_max =   3.5977e-04 ( 162.3 sec  30/ 48 done)
  ITERATION   8:   ||err||_max =   1.8280e-04 (  87.9 sec  45/ 48 done)
  ITERATION   9:   ||err||_max =   6.7856e-05 (  20.3 sec  48/ 48 done)

CP-SCF equations solved in 2267.6 sec
Response densities calculated in   0.1 sec

Maximum memory used throughout the entire SCFRESP-calculation: 112.4 MB


           ************************************************************
           *        Program running with 8 parallel MPI-processes     *
           *              working on a common directory               *
           ************************************************************

------------------------------------------------------------------------------
                              ORCA PROPERTY CALCULATIONS
------------------------------------------------------------------------------

GBWName                                 ... s0_freq_2_wat.gbw
Number of atoms                         ...     16
Number of basis functions               ...    304
Max core memory                         ...   8000 MB

Electric properties:
Dipole moment                           ... YES
Quadrupole moment                       ...  NO
Static polarizability (Dipole/Dipole)   ...  NO
Static polarizability (Dipole/Quad.)    ...  NO
Static polarizability (Quad./Quad.)     ...  NO
Static polarizability (Velocity)        ...  NO
Static hyperpolarizability              ...  NO

Atomic electric properties:
Dipole moment                           ...  NO
Quadrupole moment                       ...  NO
Static polarizability                   ...  NO

Choice of electric origin               ... Center of mass
Position of electric origin             ...     0.223707    -0.362709     0.101951

General magnetic properties:
Magnetizability                         ...  NO

EPR properties:
g-Tensor (aka g-matrix)                 ...  NO
Zero-Field splitting spin-orbit         ...  NO
Zero-field splitting spin-spin          ...  NO
Hyperfine couplings                     ...  NO (   0 nuclei)
Quadrupole couplings                    ...  NO (   0 nuclei)
Contact density                         ...  NO (   0 nuclei)

NMR properties:
Chemical shifts                         ...  NO (   0 nuclei)
Spin-rotation constants                 ...  NO (   0 nuclei)
Spin-spin couplings                     ...  NO (   0 nuclei,    0 pairs)

Choice of magnetic origin               ... GIAO
Position of magnetic origin             ...     0.000000     0.000000     0.000000

Properties with geometric perturbations:
SCF Hessian                             ... YES
IR spectrum                             ... YES
VCD spectrum                            ...  NO
X-ray spectroscopy properties:
SCF XES/XAS/RIXS spectra                ...  NO

SCF SOC stabilization energy            ...  NO
Diagonal Born-Oppenheimer correction    ...  NO

-------------
DIPOLE MOMENT
-------------

Method             : SCF
Type of density    : Electron Density
Multiplicity       :   1
Irrep              :   0
Energy             :  -495.1696975225520987 Eh
Basis              : AO
                                X                 Y                 Z
Electronic contribution:      3.379070542      -0.222378679      -0.513952516
Nuclear contribution   :     -4.636633558      -0.033863779       0.885501758
                        -----------------------------------------
Total Dipole Moment    :     -1.257563017      -0.256242458       0.371549242
                        -----------------------------------------
Magnitude (a.u.)       :      1.336103955
Magnitude (Debye)      :      3.396106360



--------------------
Rotational spectrum 
--------------------
 
Rotational constants in cm-1:             0.147036             0.023065             0.020099 
Rotational constants in MHz :          4408.025491           691.477965           602.544901 

Dipole components along the rotational axes: 
x,y,z [a.u.] :    -1.243435    -0.344593     0.346843 
x,y,z [Debye]:    -3.160560    -0.875885     0.881604 

 

Dipole moment calculation done in   0.1 sec 

-----------
SCF HESSIAN
-----------

Occupied/Occupied contributions to the Hessian:
   => Occupied/Occupied contributions              ... done (  0.2 sec)
Perturbed density contributions to the Hessian:
   => Perturbed density contributions              ... done (  0.1 sec)
Explicit contributions to the Hessian:
   => Nuclear repulsion Hessian                    ... done (  0.0 sec)
   => HCore and overlap Hessian                    ... done (  3.3 sec)
   => Exact two electron integral Hessian          ... done (284.5 sec)
   => XC-Hessian                                   ... done ( 34.6 sec)
   => Explicit contributions done
Dipole derivatives                                 ... done (  0.1 sec)
Mass weighting the Hessian           ... done
Calculating normal modes             ... done
Scaling frequencies                  ... done

-----------------------
VIBRATIONAL FREQUENCIES
-----------------------

Scaling factor for frequencies =  1.000000000  (already applied!)

     0:       0.00 cm**-1
     1:       0.00 cm**-1
     2:       0.00 cm**-1
     3:       0.00 cm**-1
     4:       0.00 cm**-1
     5:       0.00 cm**-1
     6:     -91.45 cm**-1  ***imaginary mode***
     7:     -64.64 cm**-1  ***imaginary mode***
     8:      23.49 cm**-1
     9:      40.12 cm**-1
    10:      74.33 cm**-1
    11:      93.97 cm**-1
    12:     144.99 cm**-1
    13:     180.47 cm**-1
    14:     195.79 cm**-1
    15:     219.40 cm**-1
    16:     345.53 cm**-1
    17:     409.53 cm**-1
    18:     447.56 cm**-1
    19:     469.96 cm**-1
    20:     534.90 cm**-1
    21:     586.80 cm**-1
    22:     630.38 cm**-1
    23:     706.13 cm**-1
    24:     755.18 cm**-1
    25:     769.28 cm**-1
    26:     796.85 cm**-1
    27:     811.07 cm**-1
    28:    1003.01 cm**-1
    29:    1033.28 cm**-1
    30:    1124.03 cm**-1
    31:    1342.11 cm**-1
    32:    1374.84 cm**-1
    33:    1411.41 cm**-1
    34:    1439.86 cm**-1
    35:    1454.60 cm**-1
    36:    1495.22 cm**-1
    37:    1699.32 cm**-1
    38:    1707.96 cm**-1
    39:    1722.08 cm**-1
    40:    3040.41 cm**-1
    41:    3110.69 cm**-1
    42:    3165.79 cm**-1
    43:    3480.93 cm**-1
    44:    3610.33 cm**-1
    45:    3615.03 cm**-1
    46:    3933.75 cm**-1
    47:    3960.61 cm**-1


------------
NORMAL MODES
------------

These modes are the Cartesian displacements weighted by the diagonal matrix
M(i,i)=1/sqrt(m[i]) where m[i] is the mass of the displaced atom
Thus, these vectors are normalized but *not* orthogonal

                  0          1          2          3          4          5    
      0       0.000000   0.000000   0.000000   0.000000   0.000000   0.000000
      1       0.000000   0.000000   0.000000   0.000000   0.000000   0.000000
      2       0.000000   0.000000   0.000000   0.000000   0.000000   0.000000
      3       0.000000   0.000000   0.000000   0.000000   0.000000   0.000000
      4       0.000000   0.000000   0.000000   0.000000   0.000000   0.000000
      5       0.000000   0.000000   0.000000   0.000000   0.000000   0.000000
      6       0.000000   0.000000   0.000000   0.000000   0.000000   0.000000
      7       0.000000   0.000000   0.000000   0.000000   0.000000   0.000000
      8       0.000000   0.000000   0.000000   0.000000   0.000000   0.000000
      9       0.000000   0.000000   0.000000   0.000000   0.000000   0.000000
     10       0.000000   0.000000   0.000000   0.000000   0.000000   0.000000
     11       0.000000   0.000000   0.000000   0.000000   0.000000   0.000000
     12       0.000000   0.000000   0.000000   0.000000   0.000000   0.000000
     13       0.000000   0.000000   0.000000   0.000000   0.000000   0.000000
     14       0.000000   0.000000   0.000000   0.000000   0.000000   0.000000
     15       0.000000   0.000000   0.000000   0.000000   0.000000   0.000000
     16       0.000000   0.000000   0.000000   0.000000   0.000000   0.000000
     17       0.000000   0.000000   0.000000   0.000000   0.000000   0.000000
     18       0.000000   0.000000   0.000000   0.000000   0.000000   0.000000
     19       0.000000   0.000000   0.000000   0.000000   0.000000   0.000000
     20       0.000000   0.000000   0.000000   0.000000   0.000000   0.000000
     21       0.000000   0.000000   0.000000   0.000000   0.000000   0.000000
     22       0.000000   0.000000   0.000000   0.000000   0.000000   0.000000
     23       0.000000   0.000000   0.000000   0.000000   0.000000   0.000000
     24       0.000000   0.000000   0.000000   0.000000   0.000000   0.000000
     25       0.000000   0.000000   0.000000   0.000000   0.000000   0.000000
     26       0.000000   0.000000   0.000000   0.000000   0.000000   0.000000
     27       0.000000   0.000000   0.000000   0.000000   0.000000   0.000000
     28       0.000000   0.000000   0.000000   0.000000   0.000000   0.000000
     29       0.000000   0.000000   0.000000   0.000000   0.000000   0.000000
     30       0.000000   0.000000   0.000000   0.000000   0.000000   0.000000
     31       0.000000   0.000000   0.000000   0.000000   0.000000   0.000000
     32       0.000000   0.000000   0.000000   0.000000   0.000000   0.000000
     33       0.000000   0.000000   0.000000   0.000000   0.000000   0.000000
     34       0.000000   0.000000   0.000000   0.000000   0.000000   0.000000
     35       0.000000   0.000000   0.000000   0.000000   0.000000   0.000000
     36       0.000000   0.000000   0.000000   0.000000   0.000000   0.000000
     37       0.000000   0.000000   0.000000   0.000000   0.000000   0.000000
     38       0.000000   0.000000   0.000000   0.000000   0.000000   0.000000
     39       0.000000   0.000000   0.000000   0.000000   0.000000   0.000000
     40       0.000000   0.000000   0.000000   0.000000   0.000000   0.000000
     41       0.000000   0.000000   0.000000   0.000000   0.000000   0.000000
     42       0.000000   0.000000   0.000000   0.000000   0.000000   0.000000
     43       0.000000   0.000000   0.000000   0.000000   0.000000   0.000000
     44       0.000000   0.000000   0.000000   0.000000   0.000000   0.000000
     45       0.000000   0.000000   0.000000   0.000000   0.000000   0.000000
     46       0.000000   0.000000   0.000000   0.000000   0.000000   0.000000
     47       0.000000   0.000000   0.000000   0.000000   0.000000   0.000000
                  6          7          8          9         10         11    
      0       0.003183  -0.006016   0.020615  -0.022945  -0.003745   0.040649
      1      -0.005638   0.015404  -0.059395   0.079149  -0.036886  -0.070553
      2       0.001860  -0.033434   0.047206  -0.006181  -0.195413   0.004515
      3       0.002286  -0.003978   0.014113  -0.015738  -0.005049  -0.021842
      4      -0.002780   0.007326  -0.039937   0.057032  -0.037250   0.123273
      5       0.009547   0.107836   0.074328   0.042496   0.044004   0.005050
      6       0.003619  -0.003182   0.010797  -0.010569  -0.004673  -0.088375
      7      -0.003282   0.018258  -0.069712   0.092824  -0.038667  -0.214843
      8       0.011349  -0.068879  -0.000549  -0.043663  -0.123484   0.010683
      9       0.135838   0.282629  -0.302150  -0.323863  -0.127578  -0.055507
     10       0.131242   0.324101  -0.359697  -0.192048  -0.254581  -0.288309
     11       0.134664   0.203187  -0.288246  -0.330737  -0.253650   0.021727
     12      -0.130436  -0.292260   0.328390   0.304363   0.118090  -0.085459
     13      -0.132194  -0.291184   0.213989   0.398516   0.176890  -0.304290
     14       0.129740   0.192290  -0.276822  -0.321270  -0.245804   0.022913
     15       0.007609   0.001357  -0.001566  -0.000835  -0.007280  -0.222178
     16      -0.002402   0.021904  -0.070418   0.083827  -0.041443  -0.163862
     17      -0.170339  -0.488451   0.413632   0.381768   0.164218  -0.003577
     18       0.005010  -0.009934   0.030647  -0.033495  -0.002729   0.173990
     19      -0.005155   0.016094  -0.061482   0.081710  -0.036463  -0.091061
     20      -0.004515  -0.055774   0.057866  -0.008600  -0.323652   0.000465
     21      -0.000711   0.001199  -0.002193   0.002838  -0.009676  -0.129614
     22      -0.001666   0.005272  -0.034715   0.051309  -0.037692   0.157970
     23       0.019714   0.134235   0.065648   0.048172   0.206983   0.011069
     24       0.003986  -0.008444   0.028737  -0.032786  -0.001921   0.089320
     25      -0.000349   0.002979  -0.028020   0.042904  -0.033524   0.206997
     26      -0.001569   0.135771   0.100435   0.065215  -0.024911  -0.002385
     27       0.006693  -0.012545   0.041126  -0.046738   0.001521   0.173648
     28      -0.002488   0.006634  -0.036876   0.052838  -0.033723   0.145328
     29      -0.007126   0.094057   0.100905   0.051739  -0.178189  -0.004835
     30      -0.000868   0.005903  -0.006074   0.013305  -0.012618  -0.125216
     31       0.010495  -0.023563   0.119074  -0.157194   0.067285  -0.319477
     32      -0.013679  -0.155940  -0.171459  -0.077694   0.067523  -0.005856
     33       0.003093  -0.002301   0.033728  -0.044250   0.023031  -0.333034
     34       0.011066  -0.022927   0.119674  -0.158416   0.074053  -0.323069
     35      -0.042788  -0.202152  -0.158672  -0.075716  -0.283546  -0.048479
     36      -0.001554   0.006069  -0.013668   0.022674  -0.019588  -0.089520
     37       0.006973  -0.016568   0.078805  -0.101404   0.035311  -0.123539
     38       0.000067  -0.063248  -0.115479  -0.043436   0.190873   0.006869
     39       0.007141   0.010746  -0.077462   0.091386   0.032639   0.072260
     40      -0.041635  -0.011142   0.117352  -0.197700   0.104928   0.214625
     41      -0.034064  -0.033199  -0.112700  -0.006479   0.287021  -0.016452
     42      -0.381802   0.186384  -0.165274  -0.038374   0.048832   0.033379
     43       0.802300  -0.357605   0.223283   0.169364   0.310586   0.191848
     44       0.253907  -0.152841  -0.073116   0.115434   0.347652  -0.019961
     45       0.021186  -0.003895  -0.044913   0.059206   0.033038   0.126122
     46      -0.067050   0.011686   0.064536  -0.140765   0.052749   0.114487
     47      -0.027834  -0.046942  -0.088172  -0.017404   0.153821  -0.007049
                 12         13         14         15         16         17    
      0       0.002450   0.004859   0.062700  -0.108631  -0.050044   0.000396
      1       0.001730  -0.003298   0.019523   0.031600  -0.138198   0.003689
      2       0.030014   0.043234   0.016251   0.051342   0.007687   0.000318
      3       0.002229   0.002194   0.073195  -0.088511  -0.100930   0.005873
      4       0.003743   0.010832  -0.076488  -0.060857  -0.055463  -0.004093
      5       0.001238   0.029319   0.005560   0.008122   0.001313   0.000002
      6       0.002222  -0.002339   0.178020  -0.149920   0.210903  -0.008983
      7       0.002033  -0.009858   0.144253  -0.015436   0.150249  -0.005578
[...]
     38       0.000035   0.001799   0.014093   0.012550  -0.000010   0.000081
     39      -0.000033  -0.048823   0.011208  -0.004124  -0.000267   0.000049
     40       0.001208  -0.006497   0.000803  -0.000136  -0.000097   0.000034
     41       0.000193  -0.043770   0.010499  -0.004338   0.000047  -0.000022
     42      -0.002995   0.556626  -0.131967   0.053819  -0.000313   0.000251
     43      -0.002138   0.236353  -0.056650   0.022885   0.000175  -0.000179
     44      -0.000675   0.021922  -0.005311   0.002124   0.000205  -0.000242
     45      -0.012034   0.241668  -0.053542   0.021414   0.004105  -0.000812
     46       0.008437  -0.146208   0.037898  -0.020896   0.001245  -0.000361
     47      -0.000078   0.724635  -0.172009   0.070276  -0.001088   0.000342
                 42         43         44         45         46         47    
      0       0.001134  -0.001085   0.000358   0.000795  -0.000113   0.000078
      1       0.000165   0.002816  -0.001151   0.001789  -0.000003  -0.000283
      2       0.000015   0.000087  -0.000012   0.000014   0.000000  -0.000005
      3      -0.000192   0.000689  -0.001302   0.000488  -0.000012  -0.000109
      4       0.000658   0.000438   0.006499  -0.003481  -0.000815   0.000007
      5      -0.000000   0.000131   0.000070  -0.000048  -0.000009   0.000019
      6       0.051257   0.000841  -0.000194   0.000012   0.000017  -0.000062
      7       0.076607   0.000120   0.000196  -0.000245   0.000000   0.000011
      8       0.001108  -0.000092  -0.000003   0.000004   0.000003  -0.000005
      9      -0.154662  -0.003452   0.001007  -0.001232  -0.000032   0.000129
     10      -0.030565  -0.002767   0.000267  -0.000334   0.000030  -0.000115
     11       0.227406   0.002914  -0.000836   0.000536   0.000032  -0.000215
     12      -0.151669  -0.002887   0.000983  -0.001202  -0.000035   0.000151
     13      -0.025523  -0.001530   0.000215  -0.000365   0.000037   0.000129
     14      -0.229720  -0.001993   0.000853  -0.000603  -0.000025   0.000255
     15      -0.320690   0.000734  -0.000092   0.001131  -0.000088  -0.000012
     16      -0.857616  -0.003573   0.000760  -0.003136   0.000152   0.000259
     17      -0.010989  -0.000310   0.000015  -0.000042   0.000006  -0.000067
     18       0.000040   0.001034  -0.000430   0.000111   0.000029   0.000042
     19      -0.000162  -0.001015   0.000429  -0.001329   0.000070   0.000176
     20      -0.000002  -0.000431   0.000039  -0.000028  -0.000002  -0.000035
     21       0.000289  -0.000419   0.000273   0.000081   0.000217   0.000058
     22      -0.000257  -0.000465  -0.002588   0.000991   0.000269   0.000027
     23      -0.000002  -0.000038  -0.000026   0.000011   0.000007   0.000011
     24       0.000037   0.000981   0.018745  -0.030007  -0.000082   0.000129
     25       0.000078   0.001840   0.024752  -0.043258   0.000325   0.000103
     26       0.000003   0.000014   0.000369  -0.000625   0.000003   0.000001
     27      -0.000582  -0.014180  -0.276455   0.465448   0.000420  -0.001957
     28      -0.002823  -0.035677  -0.428546   0.718268   0.000063  -0.001437
     29      -0.000063  -0.000374  -0.006284   0.010510   0.000001  -0.000113
     30      -0.000032   0.001776   0.049700   0.029844  -0.009094   0.000159
     31       0.000003  -0.000388  -0.006186  -0.003556   0.061639  -0.000282
     32      -0.000000  -0.000001   0.000587   0.000354   0.000948   0.000016
     33       0.000048   0.002353   0.033746   0.018038   0.051115  -0.000311
     34      -0.000031  -0.001714  -0.086496  -0.051604  -0.992259   0.004144
     35      -0.000001   0.000019  -0.001032  -0.000636  -0.016630   0.000066
     36       0.000502  -0.029526  -0.831130  -0.498220   0.092025  -0.002426
     37      -0.000196   0.007887   0.186513   0.110080   0.012537   0.000218
     38       0.000005  -0.000283  -0.008318  -0.004999   0.001513  -0.000027
     39      -0.000316   0.051927  -0.002330   0.000889   0.000045  -0.001110
     40      -0.000139   0.025628  -0.001090   0.000309  -0.000031  -0.020542
     41       0.000072  -0.008035   0.000162  -0.000075   0.000252   0.059096
     42      -0.000299   0.021941  -0.000383   0.000141  -0.000261  -0.057584
     43      -0.000049   0.038765  -0.002484   0.001058   0.001329   0.296447
     44       0.000155  -0.085789   0.006681  -0.002213  -0.004294  -0.947812
     45       0.005072  -0.857984   0.039006  -0.014129  -0.000852   0.074579
     46       0.001734  -0.447910   0.020587  -0.007376  -0.000527   0.029162
     47      -0.001301   0.219054  -0.009697   0.003574   0.000307   0.009940


-----------
IR SPECTRUM
-----------

 Mode   freq       eps      Int      T**2         TX        TY        TZ
       cm**-1   L/(mol*cm) km/mol    a.u.
----------------------------------------------------------------------------
  8:     23.49   0.000134    0.68  0.001779  ( 0.007851 -0.024652  0.033307)
  9:     40.12   0.002937   14.84  0.022849  (-0.062170  0.137424  0.009922)
 10:     74.33   0.001333    6.74  0.005596  ( 0.006415  0.008793 -0.074014)
 11:     93.97   0.000164    0.83  0.000544  (-0.019980 -0.011845 -0.002040)
 12:    144.99   0.011438   57.80  0.024619  ( 0.001644 -0.003367 -0.156859)
 13:    180.47   0.000552    2.79  0.000954  (-0.001637 -0.006762  0.030101)
 14:    195.79   0.000128    0.65  0.000204  (-0.009318  0.010818 -0.000788)
 15:    219.40   0.000564    2.85  0.000802  ( 0.002471  0.028059 -0.002919)
 16:    345.53   0.007172   36.24  0.006477  ( 0.076948  0.023345 -0.003368)
 17:    409.53   0.014404   72.79  0.010976  (-0.066823  0.080684  0.000769)
 18:    447.56   0.014867   75.13  0.010366  ( 0.072194  0.045580 -0.055469)
 19:    469.96   0.002022   10.22  0.001343  ( 0.032155 -0.012594  0.012265)
 20:    534.90   0.001394    7.04  0.000813  (-0.007514 -0.007492  0.026466)
 21:    586.80   0.000076    0.38  0.000040  (-0.006122  0.001442 -0.000830)
 22:    630.38   0.005456   27.57  0.002701  (-0.050057 -0.013663 -0.002909)
 23:    706.13   0.016667   84.23  0.007366  (-0.001514 -0.001178  0.085803)
 24:    755.18   0.014223   71.88  0.005877  ( 0.001422  0.008923 -0.076130)
 25:    769.28   0.009573   48.38  0.003883  (-0.000328 -0.000192  0.062315)
 26:    796.85   0.018030   91.12  0.007061  (-0.014762  0.078213  0.026939)
 27:    811.07   0.001393    7.04  0.000536  (-0.006916 -0.021725  0.004028)
 28:   1003.01   0.000646    3.27  0.000201  ( 0.013004  0.005621 -0.000599)
 29:   1033.28   0.000655    3.31  0.000198  (-0.001164 -0.000383  0.014010)
 30:   1124.03   0.024907  125.87  0.006915  (-0.073295  0.039258  0.001270)
 31:   1342.11   0.024862  125.64  0.005781  (-0.054338  0.053180  0.000468)
 32:   1374.84   0.025526  129.00  0.005794  ( 0.068170 -0.033844 -0.001162)
 33:   1411.41   0.043706  220.87  0.009663  (-0.030852  0.093326  0.001330)
 34:   1439.86   0.009135   46.16  0.001980  (-0.020278 -0.039523  0.002553)
 35:   1454.60   0.002238   11.31  0.000480  ( 0.001229 -0.000159  0.021877)
 36:   1495.22   0.016751   84.65  0.003496  (-0.024244 -0.053928 -0.000106)
 37:   1699.32   0.022979  116.12  0.004220  ( 0.055793  0.025885  0.020902)
 38:   1707.96   0.037527  189.65  0.006857  ( 0.066494  0.049213 -0.003643)
 39:   1722.08   0.001502    7.59  0.000272  ( 0.008932 -0.013728  0.001997)
 40:   3040.41   0.000942    4.76  0.000097  (-0.008110  0.005527 -0.000638)
 41:   3110.69   0.000072    0.37  0.000007  (-0.000058  0.000319 -0.002674)
 42:   3165.79   0.000777    3.92  0.000077  (-0.006721  0.005588 -0.000392)
 43:   3480.93   0.170962  863.97  0.015327  (-0.095784 -0.075856  0.019945)
 44:   3610.33   0.107645  544.00  0.009304  (-0.092467 -0.027420 -0.001595)
 45:   3615.03   0.009637   48.70  0.000832  (-0.014769  0.024774  0.000082)
 46:   3933.75   0.005191   26.23  0.000412  ( 0.014727 -0.013959 -0.000233)
 47:   3960.61   0.010802   54.59  0.000851  ( 0.014392  0.017350 -0.018520)

* The epsilon (eps) is given for a Dirac delta lineshape.
** The dipole moment derivative (T) already includes vibrational overlap.

The first frequency considered to be a vibration is 8
The total number of vibrations considered is 40


--------------------------
THERMOCHEMISTRY AT 298.15K
--------------------------

Temperature         ...   298.15 K
Pressure            ...     1.00 atm
Total Mass          ...   124.09 AMU
Quasi RRHO          ...     True
Cut-Off Frequency   ...     1.00 cm^-1

Throughout the following assumptions are being made:
  (1) The electronic state is orbitally nondegenerate
  (2) There are no thermally accessible electronically excited states
  (3) Hindered rotations indicated by low frequency modes are not
      treated as such but are treated as vibrations and this may
      cause some error
  (4) All equations used are the standard statistical mechanics
      equations for an ideal gas
  (5) All vibrations are strictly harmonic

freq.      23.49  E(vib)   ...       0.56 
freq.      40.12  E(vib)   ...       0.54 
freq.      74.33  E(vib)   ...       0.49 
freq.      93.97  E(vib)   ...       0.47 
freq.     144.99  E(vib)   ...       0.41 
freq.     180.47  E(vib)   ...       0.37 
freq.     195.79  E(vib)   ...       0.36 
freq.     219.40  E(vib)   ...       0.33 
freq.     345.53  E(vib)   ...       0.23 
freq.     409.53  E(vib)   ...       0.19 
freq.     447.56  E(vib)   ...       0.17 
freq.     469.96  E(vib)   ...       0.16 
freq.     534.90  E(vib)   ...       0.13 
freq.     586.80  E(vib)   ...       0.11 
freq.     630.38  E(vib)   ...       0.09 
freq.     706.13  E(vib)   ...       0.07 
freq.     755.18  E(vib)   ...       0.06 
freq.     769.28  E(vib)   ...       0.06 
freq.     796.85  E(vib)   ...       0.05 
freq.     811.07  E(vib)   ...       0.05 
freq.    1003.01  E(vib)   ...       0.02 
freq.    1033.28  E(vib)   ...       0.02 
freq.    1124.03  E(vib)   ...       0.01 
freq.    1342.11  E(vib)   ...       0.01 
freq.    1374.84  E(vib)   ...       0.01 
freq.    1411.41  E(vib)   ...       0.00 
freq.    1439.86  E(vib)   ...       0.00 
freq.    1454.60  E(vib)   ...       0.00 
freq.    1495.22  E(vib)   ...       0.00 
freq.    1699.32  E(vib)   ...       0.00 
freq.    1707.96  E(vib)   ...       0.00 
freq.    1722.08  E(vib)   ...       0.00 
freq.    3040.41  E(vib)   ...       0.00 
freq.    3110.69  E(vib)   ...       0.00 
freq.    3165.79  E(vib)   ...       0.00 
freq.    3480.93  E(vib)   ...       0.00 
freq.    3610.33  E(vib)   ...       0.00 
freq.    3615.03  E(vib)   ...       0.00 
freq.    3933.75  E(vib)   ...       0.00 
freq.    3960.61  E(vib)   ...       0.00 

------------
INNER ENERGY
------------

The inner energy is: U= E(el) + E(ZPE) + E(vib) + E(rot) + E(trans)
    E(el)   - is the total energy from the electronic structure calculation
              = E(kin-el) + E(nuc-el) + E(el-el) + E(nuc-nuc)
    E(ZPE)  - the the zero temperature vibrational energy from the frequency calculation
    E(vib)  - the the finite temperature correction to E(ZPE) due to population
              of excited vibrational states
    E(rot)  - is the rotational thermal energy
    E(trans)- is the translational thermal energy

Summary of contributions to the inner energy U:
Electronic energy                ...   -495.16969752 Eh
Zero point energy                ...      0.12065401 Eh      75.71 kcal/mol
Thermal vibrational correction   ...      0.00789640 Eh       4.96 kcal/mol
Thermal rotational correction    ...      0.00141627 Eh       0.89 kcal/mol
Thermal translational correction ...      0.00141627 Eh       0.89 kcal/mol
-----------------------------------------------------------------------
Total thermal energy                   -495.03831456 Eh


Summary of corrections to the electronic energy:
(perhaps to be used in another calculation)
Total thermal correction                  0.01072895 Eh       6.73 kcal/mol
Non-thermal (ZPE) correction              0.12065401 Eh      75.71 kcal/mol
-----------------------------------------------------------------------
Total correction                          0.13138296 Eh      82.44 kcal/mol


--------
ENTHALPY
--------

The enthalpy is H = U + kB*T
                kB is Boltzmann's constant
Total thermal energy              ...   -495.03831456 Eh 
Thermal Enthalpy correction       ...      0.00094421 Eh       0.59 kcal/mol
-----------------------------------------------------------------------
Total Enthalpy                    ...   -495.03737035 Eh


Note: Only C1 symmetry has been detected, increase convergence thresholds 
      if your molecule has a higher symmetry. Symmetry factor of 1.0 is   
      used for the rotational entropy correction. 
 

Note: Rotational entropy computed according to Herzberg 
Infrared and Raman Spectra, Chapter V,1, Van Nostrand Reinhold, 1945 
Point Group:  C1, Symmetry Number:   1  
Rotational constants in cm-1:     0.147036     0.023065     0.020099 

Vibrational entropy computed according to the QRRHO of S. Grimme
Chem.Eur.J. 2012 18 9955 using a reference frequency of 100.0 cm-1


-------
ENTROPY
-------

The entropy contributions are T*S = T*(S(el)+S(vib)+S(rot)+S(trans))
     S(el)   - electronic entropy
     S(vib)  - vibrational entropy
     S(rot)  - rotational entropy
     S(trans)- translational entropy
The entropies will be listed as multiplied by the temperature to get
units of energy

Electronic entropy                ...      0.00000000 Eh      0.00 kcal/mol
Vibrational entropy               ...      0.01447395 Eh      9.08 kcal/mol
Rotational entropy                ...      0.01403986 Eh      8.81 kcal/mol
Translational entropy             ...      0.01917695 Eh     12.03 kcal/mol
-----------------------------------------------------------------------
Final entropy term                ...      0.04769075 Eh     29.93 kcal/mol

In case the symmetry of your molecule has not been determined correctly
or in case you have a reason to use a different symmetry number we print 
out the resulting rotational entropy values for sn=1,12:

 non-linear molecules -----------------------------------
|  sn= 1 | S(rot)=       0.01403986 Eh      8.81 kcal/mol|
|  sn= 2 | S(rot)=       0.01338540 Eh      8.40 kcal/mol|
|  sn= 3 | S(rot)=       0.01300257 Eh      8.16 kcal/mol|
|  sn= 4 | S(rot)=       0.01273095 Eh      7.99 kcal/mol|
|  sn= 5 | S(rot)=       0.01252026 Eh      7.86 kcal/mol|
|  sn= 6 | S(rot)=       0.01234811 Eh      7.75 kcal/mol|
|  sn= 7 | S(rot)=       0.01220257 Eh      7.66 kcal/mol|
|  sn= 8 | S(rot)=       0.01207649 Eh      7.58 kcal/mol|
|  sn= 9 | S(rot)=       0.01196528 Eh      7.51 kcal/mol|
|  sn=10 | S(rot)=       0.01186580 Eh      7.45 kcal/mol|
|  sn=11 | S(rot)=       0.01177581 Eh      7.39 kcal/mol|
|  sn=12 | S(rot)=       0.01169366 Eh      7.34 kcal/mol|
 linear molecules ---------------------------------------
|  Dinfh | S(rot)=       0.00901481 Eh      5.66 kcal/mol|
|  Cinfv | S(rot)=       0.00966927 Eh      6.07 kcal/mol|
 --------------------------------------------------------


-------------------
GIBBS FREE ENERGY
-------------------

The Gibbs free energy is G = H - T*S

Total enthalpy                    ...   -495.03737035 Eh 
Total entropy correction          ...     -0.04769075 Eh    -29.93 kcal/mol
-----------------------------------------------------------------------
Final Gibbs free energy         ...   -495.08506110 Eh

For completeness - the Gibbs free energy minus the electronic energy
G-E(el)                           ...      0.08463642 Eh     53.11 kcal/mol


Maximum memory used throughout the entire PROP-calculation: 44.0 MB

--------------------------------
SUGGESTED CITATIONS FOR THIS RUN
--------------------------------

Below you find a list of papers that are relevant to this ORCA run
We neither can nor want to force you to cite these papers, but we appreciate if you do
You receive ORCA, which is the product of decades of hard work by many enthusiastic individuals, for free
The only thing we kindly ask in return is that you cite our papers,
We deeply appreciate it, if you show your appreciation for ORCA by not just citing the generic ORCA reference.

Please note that relegating all ORCA citations to the supporting information does *not* help us.
SI sections are not indexed - citations you put there will not count into any citation statistics
But we need these citations in order to attract the funding resources that allow us to do what we are doing

Therefore, if you are a happy ORCA user, please consider citing a few of the papers listed below in the main body of your paper

In addition to the list printed below, the program has created the file s0_freq_2_wat.bibtex that contains the list in bibtex format
You can import this file easily into all common literature databanks and citation aid programs


List of essential papers. We consider these as the minimum necessary citations

  1. Neese, F.
     Software update: the ORCA program system, version 6.0
     WIRES Comput. Molec. Sci. 2025 15(1), e70019
     doi.org/10.1002/wcms.7019

List of papers to cite with high priority. The work reported in these papers was absolutely
necessary for this run to complete.
Our perspective: the developers of density functionals and basis sets usually get cited in chemistry papers
Good! But without the algorithms to do something with them, the functionals or basis sets would not do anything.
Hence, in our opinion, the algorithm design and method developments papers are equally worthy of getting cited

  1. Bykov, D.; Petrenko, T.; Izsak, R.; Kossmann, S.; Becker, U.; Valeev, E.; Neese, F.
     Efficient implementation of the analytic second derivatives of Hartree-Fock and hybrid DFT energies: a detailed analysis of different approximations
     Molec. Phys. 2015 113 , 1961-1977
     doi.org/10.1080/00268976.2015.1025114
  2. Lehtola, S.; Steigemann, C.; Oliveira, M.; Marques, M.
     Recent developments in Libxc - A comprehensive library of functionals for density functional theory
     Software X 2018 7 , 
     doi.org/10.1016/j.softx.2017.11.002
  3. Neese, F.
     The SHARK Integral Generation and Digestion System
     J. Comp. Chem. 2022 44(3), 381
     doi.org/10.1002/jcc.26942

List of suggested additional citations. These are papers that are important in the 'surrounding' of 
of this run, or papers that preceded the highly important papers. If you like your results we are grateful for a citation.

  1. Neese, F.
     The ORCA program system
     WIRES Comput. Molec. Sci. 2012 2(1), 73-78
     doi.org/10.1002/wcms.81
  2. Neese, F.
     Software update: the ORCA program system, version 4.0
     WIRES Comput. Molec. Sci. 2018 8(1), 1-6
     doi.org/10.1002/wcms.1327
  3. Neese, F.; Wennmohs, F.; Becker, U.; Riplinger, C.
     The ORCA quantum chemistry program package
     J. Chem. Phys. 2020 152(22), 224108
     doi.org/10.1063/5.0004608
  4. Neese, F.
     Software update: The ORCA program system—Version 5.0
     WIRES Comput. Molec. Sci. 2022 12(1), e1606
     doi.org/10.1002/wcms.1606

List of optional additional citations

  1. Neese, F.
     Approximate second-order SCF convergence for spin unrestricted wavefunctions
     Chem. Phys. Lett. 2000 325(1-3), 93-98
     doi.org/10.1016/s0009-2614(00)00662-x

Timings for individual modules:

Sum of individual times          ...     3189.426 sec (=  53.157 min)
Startup calculation              ...       12.812 sec (=   0.214 min)   0.4 %
SCF iterations                   ...      165.725 sec (=   2.762 min)   5.2 %
Property integrals               ...      377.277 sec (=   6.288 min)  11.8 %
SCF Response                     ...     2269.537 sec (=  37.826 min)  71.2 %
Property calculations            ...      324.827 sec (=   5.414 min)  10.2 %
SCF Gradient evaluation          ...       39.249 sec (=   0.654 min)   1.2 %
                             ****ORCA TERMINATED NORMALLY****
TOTAL RUN TIME: 0 days 0 hours 53 minutes 11 seconds 267 msec
