
                                 *****************
                                 * O   R   C   A *
                                 *****************

                                            #,                                       
                                            ###                                      
                                            ####                                     
                                            #####                                    
                                            ######                                   
                                           ########,                                 
                                     ,,################,,,,,                         
                               ,,#################################,,                 
                          ,,##########################################,,             
                       ,#########################################, ''#####,          
                    ,#############################################,,   '####,        
                  ,##################################################,,,,####,       
                ,###########''''           ''''###############################       
              ,#####''   ,,,,##########,,,,          '''####'''          '####       
            ,##' ,,,,###########################,,,                        '##       
           ' ,,###''''                  '''############,,,                           
         ,,##''                                '''############,,,,        ,,,,,,###''
      ,#''                                            '''#######################'''  
     '                                                          ''''####''''         
             ,#######,   #######,   ,#######,      ##                                
            ,#'     '#,  ##    ##  ,#'     '#,    #''#        ,####,    ,#,          
            ##       ##  ##   ,#'  ##            #'  '#       #'       ,# #          
            ##       ##  #######   ##           ,######,      #####,      #          
            '#,     ,#'  ##    ##  '#,     ,#' ,#      #,     #,   #      #          
             '#######'   ##     ##  '#######'  #'      '#     '####' #    #          



                #########################################################
                #                        -***-                          #
                #          Department of theory and spectroscopy        #
                #                                                       #
                #                      Frank Neese                      #
                #                                                       #
                #     Directorship, Architecture, Infrastructure        #
                #                    SHARK, DRIVERS                     #
                #        Core code/Algorithms in most modules           #
                #                                                       #
                #        Max Planck Institute fuer Kohlenforschung      #
                #                Kaiser Wilhelm Platz 1                 #
                #                 D-45470 Muelheim/Ruhr                 #
                #                      Germany                          #
                #                                                       #
                #                  All rights reserved                  #
                #                        -***-                          #
                #########################################################


                         Program Version 6.1.0  -  RELEASE   -
                                (GIT: $679e74b$)
                          ($2025-06-10 18:02:51 +0200$)


 With contributions from (in alphabetic order):
[Max-Planck-Institut fuer Kohlenforschung]                               
  Daniel Aravena         : Magnetic Suceptibility                        
  Michael Atanasov       : Ab Initio Ligand Field Theory (pilot matlab implementation)
  Alexander A. Auer      : GIAO ZORA, VPT2 properties, NMR spectrum      
  Ute Becker             : All parallelization in ORCA, NUMFREQ, NUMCALC 
  Giovanni Bistoni       : ED, misc. LED, open-shell LED, HFLD           
  Dmytro Bykov           : pre 5.0 version of the SCF Hessian            
  Marcos Casanova-Páez   : Triplet and SCS-CIS(D). UHF-(DLPNO)-IP/EA/STEOM-CCSD. UHF-CVS-IP/STEOM-CCSD   
  Vijay G. Chilkuri      : MRCI spin determinant printing, contributions to CSF-ICE 
  Pauline Colinet        : FMM embedding                                 
  Dipayan Datta          : RHF DLPNO-CCSD density                        
  Achintya Kumar Dutta   : EOM-CC, STEOM-CC                              
  Nicolas Foglia         : Exact transition moments, OPA infrastructure, MCD improvements    
  Dmitry Ganyushin       : Spin-Orbit,Spin-Spin,Magnetic field MRCI      
  Miquel Garcia-Rates    : C-PCM and meta-GGA Hessian, CCSD/C-PCM, Gaussian charge scheme 
  Tiago L. C. Gouveia    : GS-ROHF, GS-ROCIS                             
  Yang Guo               : DLPNO-NEVPT2, F12-NEVPT2, CIM, IAO-localization        
  Andreas Hansen         : Spin unrestricted coupled pair/coupled cluster methods 
  Ingolf Harden          : AUTO-CI MPn and infrastructure                
  Benjamin Helmich-Paris : MC-RPA, TRAH-(SCF,CASSCF), AVAS, COSX integrals, SCF dyn. polar., MC-PDFT, srDFT 
  Lee Huntington         : MR-EOM, pCC                                   
  Robert Izsak           : Overlap fitted RIJCOSX, COSX-SCS-MP3, EOM     
  Riya Kayal             : Wick's Theorem for AUTO-CI, AUTO-CI UHF-CCSDT 
  Emily Kempfer          : AUTO-CI RHF CISDT and CCSDT, approximate NEVPT4
  Christian Kollmar      : KDIIS, OOCD, Brueckner-CCSD(T), CCSD density, CASPT2, CASPT2-K, improved NEVPT2 
  Axel Koslowski         : Symmetry handling                             
  Simone Kossmann        : meta-GGA functionals, TD-DFT gradient, OOMP2, (MP2 Hessian; deprecated post 5.0) 
  Lucas Lang             : DCDCAS, Hyperfine gauge corrections, ICE-SOC+SSC
  Marvin Lechner         : AUTO-CI (C++ implementation), FIC-MRCC        
  Spencer Leger          : CASSCF response                               
  Dagmar Lenk            : GEPOL surface, SMD, ORCA-2-JSON               
  Dimitrios Liakos       : Extrapolation schemes; Compound Job, Property file
  Dimitrios Manganas     : Further ROCIS development; embedding schemes. LFT, Crystal Embedding 
  Dimitrios Pantazis     : SARC Basis sets                               
  Anastasios Papadopoulos: AUTO-CI, single reference methods and gradients 
  Taras Petrenko         : pre 6.0 DFT Hessian and TD-DFT gradient,  ECA, NRVS 
  Petra Pikulova         : Analytic Raman intensities                    
  Peter Pinski           : DLPNO-MP2, DLPNO-MP2 Gradient                 
  Shashank Vittal Rao    : ES-AILFT, MagRelax                            
  Christoph Reimann      : Effective Core Potentials                     
  Marius Retegan         : Local ZFS, SOC                                
  Christoph Riplinger    : Optimizer, TS searches, QM/MM, DLPNO-CCSD(T), (RO)-DLPNO pert. Triples 
  Michael Roemelt        : Original ROCIS implementation, recursive CI coupling coefficients
  Masaaki Saitow         : Open-shell DLPNO-CCSD energy and density      
  Barbara Sandhoefer     : DKH picture change effects                    
  Yorick L. A. Schmerwitz: GMF and freeze-and-release deltaSCF, NEB S-IDPP initial path                    
  Kantharuban Sivalingam : CASSCF convergence/infrastructure, NEVPT2, NEVPT3, NEVPT4(SD), FIC-MRCI and CEPA variants
  Bernardo de Souza      : ESD, SOC TD-DFT                               
  Georgi L. Stoychev     : AutoAux, RI-MP2 NMR, DLPNO-MP2 response, X2C  
  Van Anh Tran           : RI-MP2 g-tensors                              
  Willem Van den Heuvel  : Paramagnetic NMR                              
  Zikuan Wang            : NOTCH, Electric field optimization            
  Frank Wennmohs         : Technical directorship and infrastructure     
  Hang Xu                : AUTO-CI-Response properties                   
                                                                         
[FACCTs GmbH]                                                            
  Markus Bursch, Nicolas Foglia, Miquel Garcia-Rates, Ingolf Harden, Hagen Neugebauer, Anastasios Papadopoulos, 
  Christoph Riplinger, Bernardo de Souza, Georgi L. Stoychev                                                    
                                                                 
  APM, various basis sets, CI-OPT, improved COSX, DLPNO-Multilevel,           
  DOCKER, DRACO, updates on ESD, Fragmentator, GOAT, IRC, LR-CPCM, L-BFGS, MBIS, meta-GGA TD-DFT gradient, ML-optimized integration grids, 
  MM, NACMEs, nearIR, NEB, NEB-TS, NL-DFT gradient (VV10), 2- and 3-layer-ONIOM, interface openCOSMO-RS, QMMM,   
  Crystal-QMMM, RESP, rigid body optimization, SF, symmetry and pop. for TD-DFT, various functionals, SOLVATOR                                   
                                                                         
[Other institutions]                                                     
  V. Asgeirsson          : NEB                                           
  Christoph Bannwarth    : sTDA-DFT, sTD-DFT, PBEh-3c, B97-3c, D3        
  Giovanni Bistoni       : ETS/NOCV, ADLD/ADEX, COVALED                  
  Martin Brehm           : Molecular dynamics                            
  Ronald Cardenas        : ETS/NOCV                                      
  Martina Colucci        : COVALED                                       
  Sebastian Ehlert       : rSCAN, r2SCAN, r2SCAN-3c, D4, dhf basis sets  
  Marvin Friede          : D4 for Fr, Ra, Ac-Lr                          
  Lars Goerigk           : TD-DFT with DH, B97 family of functionals     
  Stefan Grimme          : VdW corrections, initial TS optimization, DFT functionals, gCP, sTDA/sTD-DF 
  Waldemar Hujo          : DFT-NL                                        
  H. Jonsson             : NEB                                           
  Holger Kruse           : gCP                                           
  Marcel Mueller         : wB97X-3c, vDZP basis set                      
  Hagen Neugebauer       : wr2SCAN, Native XTB                           
  Gianluca Regni         : ADLD/ADEX                                     
  Tobias Risthaus        : pre 6.0 range-separated hybrid DFT and stability analysis
  Lukas Wittmann         : regularized MP2, r2SCAN double-hybrids, wr2SCAN        
                                                                         
We gratefully acknowledge several colleagues who have allowed us to      
interface, adapt or use parts of their codes:                            
  Ed Valeev, F. Pavosevic, A. Kumar             : LibInt (2-el integral package), F12 methods 
  Garnet Chan, S. Sharma, J. Yang, R. Olivares  : DMRG                   
  Ulf Ekstrom                                   : XCFun DFT Library      
  Mihaly Kallay                                 : mrcc  (arbitrary order and MRCC methods)
  Frank Weinhold                                : gennbo (NPA and NBO analysis)           
  Simon Mueller                                 : openCOSMO-RS                            
  Christopher J. Cramer and Donald G. Truhlar   : smd solvation model                     
  S Lehtola, MJT Oliveira, MAL Marques          : LibXC Library                           
  Liviu Ungur et al                             : ANISO software                          


 Your calculation uses the libint2 library for the computation of 2-el integrals
 For citations please refer to: http://libint.valeyev.net

 Your ORCA version has been built with support for libXC version: 7.0.0
 For citations please refer to: https://libxc.gitlab.io

 This ORCA versions uses:
   CBLAS   interface :  Fast vector & matrix operations
   LAPACKE interface :  Fast linear algebra routines
   SCALAPACK package :  Parallel linear algebra routines
   Shared memory     :  Shared parallel matrices
   BLAS/LAPACK       :  OpenBLAS 0.3.29  USE64BITINT DYNAMIC_ARCH NO_AFFINITY SkylakeX SINGLE_THREADED
        Core in use  :  SkylakeX
   Copyright (c) 2011-2014, The OpenBLAS Project


  ***********************************
  * Starting time: Wed Jan 28 11:50:44 2026
  * Host name:     bp1-compute173.data.bp.acrc.priv
  * Process ID:    3517052
  * Working dir.:  /user/work/kp22738/Diss/Orca/pyruvic_anion/dyson_orbitals/2_wat/15365079_s1_freq_2_wat
  ***********************************

NOTE: MaxCore=8000 MB was set to SCF,MP2,MDCI,CIPSI,MRCI,RASCI and CIS
      => If you want to overwrite this, your respective input block should be placed after the MaxCore statement
Using LibXC functional ID 471 : wB97X-D range-separated functional
[ 1]  J.-D. Chai and M. Head-Gordon.,  Phys. Chem. Chem. Phys. 10, 6615-6620 (2008)
Using LibXC functional ID 471 : wB97X-D range-separated functional
[ 1]  J.-D. Chai and M. Head-Gordon.,  Phys. Chem. Chem. Phys. 10, 6615-6620 (2008)
Your calculation utilizes LibXC
by S. Lehtola, C. Steigemann, M. J. T. Oliveira & M. A. L. Marques
Please cite in your paper:
Lehtola, S.; Steigemann, C.; Oliveira, M.J.T.; Marques, M. A. L. Software X, 7, (2018), 1.
   

================================================================================

----- Orbital basis set information -----
Your calculation utilizes the basis: aug-cc-pVDZ 
    H, B-Ne : Obtained from the ccRepo (grant-hill.group.shef.ac.uk/ccrepo) Feb. 2017
              R. A. Kendall, T. H. Dunning, Jr., R. J. Harrison, J. Chem. Phys. 96, 6796 (1992)
         He : Obtained from the ccRepo (grant-hill.group.shef.ac.uk/ccrepo) Feb. 2017
              D. E. Woon, T. H. Dunning, Jr., J. Chem. Phys. 100, 2975 (1994)
  Li-Be, Na : Obtained from the ccRepo (grant-hill.group.shef.ac.uk/ccrepo) Feb. 2017
              B. P. Prascher, D. E. Woon, K. A. Peterson, T. H. Dunning, Jr., A. K. Wilson, Theor. Chem. Acc. 128, 69 (2011)
         Mg : Obtained from the Peterson Research Group Website (tyr0.chem.wsu.edu/~kipeters) Feb. 2017
              B. P. Prascher, D. E. Woon, K. A. Peterson, T. H. Dunning, Jr., A. K. Wilson, Theor. Chem. Acc. 128, 69 (2011)
      Al-Ar : Obtained from the ccRepo (grant-hill.group.shef.ac.uk/ccrepo) Feb. 2017
              D. E. Woon, T. H. Dunning, Jr., J. Chem. Phys. 98, 1358 (1993)
      Sc-Zn : Obtained from the ccRepo (grant-hill.group.shef.ac.uk/ccrepo) Feb. 2017
              N. B. Balabanov, K. A. Peterson, J. Chem. Phys. 123, 064107 (2005)
              N. B. Balabanov, K. A. Peterson, J. Chem. Phys. 125, 074110 (2006)
      Ga-Kr : Obtained from the ccRepo (grant-hill.group.shef.ac.uk/ccrepo) Feb. 2017
              A. K. Wilson, D. E. Woon, K. A. Peterson, T. H. Dunning, Jr., J. Chem. Phys. 110, 7667 (1999)

================================================================================
                                        WARNINGS
                       Please study these warnings very carefully!
================================================================================


WARNING: Analytical Frequencies for this method not available!
  ===> : Switching to Numerical Frequencies!

WARNING: The environment variable RSH_COMMAND is not set!
  ===> : All Displacements for the Numerical Hessian or Gradient calculation
         will be started on localhost

WARNING: CIS/ROCIS methods need fully converged wavefunctions
  ===> : Setting SCFConvForced true
         You can overwrite this default with %scf ConvForced false 


================================================================================
                                       INPUT FILE
================================================================================
NAME = s1_freq_2_wat.inp
|  1> ! aug-cc-pVDZ TightSCF Engrad ANFREQ
|  2> 
|  3> %PAL NPROCS 8 END
|  4> 
|  5> %maxcore 8000
|  6> 
|  7> %method
|  8> method dft
|  9> functional hyb_gga_xc_wb97x_d
| 10> end
| 11> 
| 12> %TDDFT
| 13> NROOTS 10
| 14> DONTO TRUE
| 15> IROOT 1
| 16> END
| 17> 
| 18> * xyz 0 1
| 19>   C     -0.654789   -0.185921   -0.002844
| 20>   C      0.709878    0.264773    0.002326
| 21>   C     -1.785838    0.801672    0.002026
| 22>   H     -2.431910    0.645440    0.880861
| 23>   H     -2.420729    0.664561   -0.888077
| 24>   H     -1.398583    1.826979    0.015246
| 25>   O     -0.869959   -1.461628   -0.014994
| 26>   O      1.127848    1.437660    0.015865
| 27>   O      1.605790   -0.771938   -0.008399
| 28>   H      1.014909   -1.552422   -0.019915
| 29>   O      3.904848    1.364058    0.046850
| 30>   H      3.921005    0.403334    0.030279
| 31>   H      2.937417    1.529562    0.036214
| 32>   O     -3.297429   -2.619971    0.291398
| 33>   H     -3.216720   -2.894342    1.206550
| 34>   H     -2.430142   -2.177490    0.113337
| 35> * 
| 36> 
| 37>                          ****END OF INPUT****
================================================================================

                     *******************************
                     * Energy+Gradient Calculation *
                     *******************************

---------------------------------
CARTESIAN COORDINATES (ANGSTROEM)
---------------------------------
  C     -0.654789   -0.185921   -0.002844
  C      0.709878    0.264773    0.002326
  C     -1.785838    0.801672    0.002026
  H     -2.431910    0.645440    0.880861
  H     -2.420729    0.664561   -0.888077
  H     -1.398583    1.826979    0.015246
  O     -0.869959   -1.461628   -0.014994
  O      1.127848    1.437660    0.015865
  O      1.605790   -0.771938   -0.008399
  H      1.014909   -1.552422   -0.019915
  O      3.904848    1.364058    0.046850
  H      3.921005    0.403334    0.030279
  H      2.937417    1.529562    0.036214
  O     -3.297429   -2.619971    0.291398
  H     -3.216720   -2.894342    1.206550
  H     -2.430142   -2.177490    0.113337

----------------------------
CARTESIAN COORDINATES (A.U.)
----------------------------
  NO LB      ZA    FRAG     MASS         X           Y           Z
   0 C     6.0000    0    12.011   -1.237372   -0.351340   -0.005374
   1 C     6.0000    0    12.011    1.341475    0.500348    0.004396
   2 C     6.0000    0    12.011   -3.374745    1.514941    0.003829
   3 H     1.0000    0     1.008   -4.595644    1.219705    1.664586
   4 H     1.0000    0     1.008   -4.574515    1.255838   -1.678222
   5 H     1.0000    0     1.008   -2.642939    3.452490    0.028811
   6 O     8.0000    0    15.999   -1.643984   -2.762077   -0.028335
   7 O     8.0000    0    15.999    2.131324    2.716784    0.029981
   8 O     8.0000    0    15.999    3.034503   -1.458751   -0.015872
   9 H     1.0000    0     1.008    1.917900   -2.933652   -0.037634
  10 O     8.0000    0    15.999    7.379093    2.577696    0.088534
  11 H     1.0000    0     1.008    7.409626    0.762191    0.057219
  12 H     1.0000    0     1.008    5.550914    2.890453    0.068435
  13 O     8.0000    0    15.999   -6.231238   -4.951028    0.550662
  14 H     1.0000    0     1.008   -6.078720   -5.469514    2.280049
  15 H     1.0000    0     1.008   -4.592303   -4.114860    0.214176

--------------------------------
INTERNAL COORDINATES (ANGSTROEM)
--------------------------------
 C      0   0   0     0.000000000000     0.00000000     0.00000000
 C      1   0   0     1.437173556473     0.00000000     0.00000000
 C      1   2   0     1.501544368625   120.59619688     0.00000000
 H      3   1   2     1.101893109259   110.54780233   238.62045386
 H      3   1   2     1.101893533337   110.45990442   120.64909578
 H      3   1   2     1.096081952992   110.43568599   359.68109296
 O      1   2   3     1.293782864800   117.85075955   179.83810079
 O      2   1   3     1.245209275660   127.89023674     0.29123319
 O      2   1   3     1.370234664169   112.55422657   180.23345231
 H      9   2   1     0.978993487554   102.04275993     0.18404395
 O      8   2   1     2.778148002650   108.10085185   179.30765551
 H     11   8   2     0.961002731976    92.47014943     0.57001846
 H     11   8   2     0.981543396021     8.18924455   179.63525502
 O      7   1   2     2.707073173044   124.74931678   171.75617655
 H     14   7   1     0.958799547051    98.91642801   257.84925167
 H     14   7   1     0.989788813561     4.14730856    74.03584552

---------------------------
INTERNAL COORDINATES (A.U.)
---------------------------
 C      0   0   0     0.000000000000     0.00000000     0.00000000
 C      1   0   0     2.715864428647     0.00000000     0.00000000
 C      1   2   0     2.837507634633   120.59619688     0.00000000
 H      3   1   2     2.082276205355   110.54780233   238.62045386
 H      3   1   2     2.082277006747   110.45990442   120.64909578
 H      3   1   2     2.071294711488   110.43568599   359.68109296
 O      1   2   3     2.444895291231   117.85075955   179.83810079
 O      2   1   3     2.353104510416   127.89023674     0.29123319
 O      2   1   3     2.589368254485   112.55422657   180.23345231
 H      9   2   1     1.850029578369   102.04275993     0.18404395
 O      8   2   1     5.249938884509   108.10085185   179.30765551
 H     11   8   2     1.816031977385    92.47014943     0.57001846
 H     11   8   2     1.854848207039     8.18924455   179.63525502
 O      7   1   2     5.115626921538   124.74931678   171.75617655
 H     14   7   1     1.811868561255    98.91642801   257.84925167
 H     14   7   1     1.870429788050     4.14730856    74.03584552

---------------------
BASIS SET INFORMATION
---------------------
There are 3 groups of distinct atoms

 Group   1 Type C   : 18s5p2d contracted to 4s3p2d pattern {8811/311/11}
 Group   2 Type H   : 5s2p contracted to 3s2p pattern {311/11}
 Group   3 Type O   : 18s5p2d contracted to 4s3p2d pattern {8811/311/11}

Atom   0C    basis set group =>   1
Atom   1C    basis set group =>   1
Atom   2C    basis set group =>   1
Atom   3H    basis set group =>   2
Atom   4H    basis set group =>   2
Atom   5H    basis set group =>   2
Atom   6O    basis set group =>   3
Atom   7O    basis set group =>   3
Atom   8O    basis set group =>   3
Atom   9H    basis set group =>   2
Atom  10O    basis set group =>   3
Atom  11H    basis set group =>   2
Atom  12H    basis set group =>   2
Atom  13O    basis set group =>   3
Atom  14H    basis set group =>   2
Atom  15H    basis set group =>   2


           ************************************************************
           *        Program running with 8 parallel MPI-processes     *
           *              working on a common directory               *
           ************************************************************
------------------------------------------------------------------------------
                             ORCA STARTUP CALCULATIONS
------------------------------------------------------------------------------
------------------------------------------------------------------------------
                   ___                                                        
                  /   \      - P O W E R E D   B Y -                         
                 /     \                                                     
                 |  |  |   _    _      __       _____    __    __             
                 |  |  |  | |  | |    /  \     |  _  \  |  |  /  |          
                  \  \/   | |  | |   /    \    | | | |  |  | /  /          
                 / \  \   | |__| |  /  /\  \   | |_| |  |  |/  /          
                |  |  |   |  __  | /  /__\  \  |    /   |      \           
                |  |  |   | |  | | |   __   |  |    \   |  |\   \          
                \     /   | |  | | |  |  |  |  | |\  \  |  | \   \       
                 \___/    |_|  |_| |__|  |__|  |_| \__\ |__|  \__/        
                                                                              
                      - O R C A' S   B I G   F R I E N D -                    
                                      &                                       
                       - I N T E G R A L  F E E D E R -                       
                                                                              
 v1 FN, 2020, v2 2021, v3 2022-2024                                           
------------------------------------------------------------------------------


----------------------
SHARK INTEGRAL PACKAGE
----------------------

Number of atoms                             ...     16
Number of basis functions                   ...    304
Number of shells                            ...    160
Maximum angular momentum                    ...      2
Integral batch strategy                     ... SHARK/LIBINT Hybrid
RI-J (if used) integral strategy            ... SPLIT-RIJ (Revised 2003 algorithm where possible)
Printlevel                                  ...      1
Contraction scheme used                     ... PARTIAL GENERAL contraction
Prescreening option                         ... SCHWARTZ
   Thresh                                   ... 2.500e-11
   Tcut                                     ... 2.500e-12
   Tpresel                                  ... 2.500e-12 
Coulomb Range Separation                    ... NOT USED
Exchange Range Separation                   ... Long Range
   Mu parameter                             ... 2.000e-01
   Scaling (regular/separated)              ... 2.220e-01 7.780e-01
Robust (split-)RI terms used:
  metric    (central integrals)             ... YES
  density   (r.h.s.  integrals)             ... YES
  potential (l.h.s.  integrals)             ... YES
Multipole approximations                    ... NOT USED
Finite Nucleus Model                        ... NOT USED
CABS basis                                  ... NOT available
Auxiliary Coulomb fitting basis             ... NOT available
Auxiliary J/K fitting basis                 ... NOT available
Auxiliary Correlation fitting basis         ... NOT available
Auxiliary 'external' fitting basis          ... NOT available

Checking pre-screening integrals            ... done (  0.0 sec) Dimension = 160
Save PGC pre-screening integrals            ... done (  0.0 sec) Dimension = 160
Calculate PGC overlap integrals             ... done (  0.0 sec) Dimension = 112
Calculating pre-screening integrals (ORCA)  ... done (  0.1 sec) Dimension = 112
Shell pair information
Shell pair cut-off parameter TPreSel        ...   2.5e-12
Total number of shell pairs                 ...     12880
Shell pairs after pre-screening             ...     10089
Total number of primitive shell pairs       ...     18576
Primitive shell pairs kept                  ...     13235
          la=0 lb=0:   3644 shell pairs
          la=1 lb=0:   3572 shell pairs
          la=1 lb=1:    781 shell pairs
          la=2 lb=0:   1368 shell pairs
          la=2 lb=1:    598 shell pairs
          la=2 lb=2:    126 shell pairs

Checking whether 4 symmetric matrices of dimension 304 fit in memory
:Max Core in MB      =   8000.00
 MB in use           =     12.29
 MB left             =   7987.71
 MB needed           =      1.41
 Data fit in memory  = YES
Calculating Nuclear repulsion               ... done (  0.0 sec) ENN=    378.456814164708 Eh

Diagonalization of the overlap matrix:
Smallest eigenvalue                        ... 1.345e-05
Time for diagonalization                   ...    0.011 sec
Threshold for overlap eigenvalues          ... 1.000e-07
Number of eigenvalues below threshold      ... 0
Time for construction of square roots      ...    0.014 sec
Total time needed                          ...    0.031 sec

-------------------
DFT GRID GENERATION
-------------------

General Integration Accuracy     IntAcc      ... 4.388
Radial Grid Type                 RadialGrid  ... OptM3 with GC (2021)
Angular Grid (max. ang.)         AngularGrid ... 4 (Lebedev-302)
Angular grid pruning method      GridPruning ... 4 (adaptive)
Weight generation scheme         WeightScheme... mBecke (2022)
Basis function cutoff            BFCut       ... 1.0000e-11
Integration weight cutoff        WCut        ... 1.0000e-14
Partially contracted basis set               ... off
Rotationally invariant grid construction     ... off
Angular grids for H and He will be reduced by one unit
Diffuse basis detected: some atoms will have their outermost
                        angular grid increased by 1.

Total number of grid points                  ...    78564
Total number of batches                      ...     1234
Average number of points per batch           ...       63
Average number of grid points per atom       ...     4910

---------------------
SHARK GRID GENERATION
---------------------

General Integration Accuracy     IntAcc      ... 4.388
Radial Grid Type                 RadialGrid  ... OptM3 with GC (2021)
Angular Grid (max. ang.)         AngularGrid ... 4 (Lebedev-302)
Angular grid pruning method      GridPruning ... 4 (adaptive)
Weight generation scheme         WeightScheme... mBecke (2022)
Basis function cutoff            BFCut       ... 1.0000e-11
Integration weight cutoff        WCut        ... 1.0000e-14
Partially contracted basis set               ... off
Rotationally invariant grid construction     ... off
Angular grids for H and He will be reduced by one unit
Diffuse basis detected: some atoms will have their outermost
                        angular grid increased by 1.
Steep s-basis detected: some atoms will have their radial
                        grid points doubled.

Total number of grid points                  ...   129980
Total number of batches                      ...     2038
Average number of points per batch           ...       63
Average number of grid points per atom       ...     8124
Grids setup in   2.4 sec
Initializing property integral containers    ... done (  0.0 sec)

SHARK setup successfully completed in   2.8 seconds

Maximum memory used throughout the entire STARTUP-calculation: 38.1 MB


           ************************************************************
           *        Program running with 8 parallel MPI-processes     *
           *              working on a common directory               *
           ************************************************************
-------------------------------------------------------------------------------
                                 ORCA GUESS
                   Start orbitals & Density for SCF / CASSCF
-------------------------------------------------------------------------------

------------
SCF SETTINGS
------------
Hamiltonian:
 Density Functional     Method          .... DFT(GTOs)
  Functional kind                       .... Exchange-Correlation
  Functional name                       .... wB97X-D range-separated functional
  Functional family                     .... Hybrid GGA
  Functional refs                              
    [ 0] J.-D. Chai and M. Head-Gordon.,  Phys. Chem. Chem. Phys. 10, 6615-6620 (2008), doi: 10.1039/B810189B
  Fraction of HF Exchange (short range) .... 0.2220
  Fraction of HF Exchange ( int64 range )  .... 1.0000
  Range separation parameter mu         .... 0.2000
  Functional external parameters        .... 18
    Parameter  0 _cx0       =  7.779640e-01 : u^0 coefficient for exchange
    Parameter  1 _cx1       =  6.611600e-01 : u^1 coefficient for exchange
    Parameter  2 _cx2       =  5.745410e-01 : u^2 coefficient for exchange
    Parameter  3 _cx3       = -5.256710e+00 : u^3 coefficient for exchange
    Parameter  4 _cx4       =  1.163860e+01 : u^4 coefficient for exchange
    Parameter  5 _css0      =  1.000000e+00 : u^0 coefficient for same-spin correlation
    Parameter  6 _css1      = -6.905390e+00 : u^1 coefficient for same-spin correlation
    Parameter  7 _css2      =  3.133430e+01 : u^2 coefficient for same-spin correlation
    Parameter  8 _css3      = -5.105330e+01 : u^3 coefficient for same-spin correlation
    Parameter  9 _css4      =  2.644230e+01 : u^4 coefficient for same-spin correlation
    Parameter 10 _cos0      =  1.000000e+00 : u^0 coefficient for opposite-spin correlation
    Parameter 11 _cos1      =  1.794130e+00 : u^1 coefficient for opposite-spin correlation
    Parameter 12 _cos2      = -1.204770e+01 : u^2 coefficient for opposite-spin correlation
    Parameter 13 _cos3      =  1.408470e+01 : u^3 coefficient for opposite-spin correlation
    Parameter 14 _cos4      = -8.508090e+00 : u^4 coefficient for opposite-spin correlation
    Parameter 15 _alpha     =  1.000000e+00 : fraction of HF exchange
    Parameter 16 _beta      = -7.779640e-01 : fraction of short-range exchange
    Parameter 17 _omega     =  2.000000e-01 : range-separation constant
 Long-range corrected/Screened/Range-Separated Hybrid DFT is turned on
   Amount of maximum screened exact exchange              ....  0.777964
   Range separation parameter mu (erf(mu*r12)/r12)        ....  0.200000


General Settings:
 Integral files         IntName         .... s1_freq_2_wat
 Hartree-Fock type      HFTyp           .... RHF
 Total Charge           Charge          ....    0
 Multiplicity           Mult            ....    1
 Number of Electrons    NEL             ....   66
 Basis Dimension        Dim             ....  256
 Nuclear Repulsion      ENuc            ....    378.4568141647 Eh

Convergence Acceleration:
 AO-DIIS                CNVDIIS         .... on
   Start iteration      DIISMaxIt       ....    12
   Startup error        DIISStart       ....  0.200000
   # of expansion vecs  DIISMaxEq       ....     5
   Bias factor          DIISBfac        ....   1.050
   Max. coefficient     DIISMaxC        ....  10.000
 MO-DIIS                CNVKDIIS        .... off
 Trust-Rad. Augm. Hess. CNVTRAH         .... auto
   Auto Start mean grad. ratio tolernc. ....  1.125000
   Auto Start start iteration           ....    50
   Auto Start num. interpolation iter.  ....    10
   Max. Number of Micro iterations      ....    24
   Max. Number of Macro iterations      .... Maxiter - #DIIS iter
   Number of Davidson start vectors     ....     2
   Converg. threshold    (grad. norm)   ....   1.000e-05
   Grad. Scal. Fac. for Micro threshold ....   0.100
   Minimum threshold for Micro iter.    ....   1.000e-02
   NR start threshold (gradient norm)   ....   1.000e-04
   Initial trust radius                 ....   0.400
   Minimum AH scaling param. (alpha)    ....   1.000
   Maximum AH scaling param. (alpha)    .... 1000.000
   Quad. conv. algorithm                .... NR
   White noise on init. David. guess    .... on
   Maximum white noise                  ....   0.010
   Pseudo random numbers                .... off
   Inactive MOs                         .... canonical
   Orbital update algorithm             .... Taylor
   Preconditioner                       .... Diag
   Full preconditioner red. dimension   ....   250
 SOSCF                 CNVSOSCF           .... on
   Start iteration     SOSCFMaxIt         ....   150
   Startup grad/error  SOSCFStart         ....  0.003300
   Hessian update      SOSCFHessUp        .... L-BFGS
   Autom. constraints  SOSCFAutoConstrain .... off
 Level Shifting         CNVShift        .... on
   Level shift para.    LevelShift      ....    0.2500
   Turn off err/grad.   ShiftErr        ....    0.0010
 Zerner damping         CNVZerner       .... off
 Static damping         CNVDamp         .... on
   Fraction old density DampFac         ....    0.7000
   Max. Damping (<1)    DampMax         ....    0.9800
   Min. Damping (>=0)   DampMin         ....    0.0000
   Turn off err/grad.   DampErr         ....    0.1000

SCF Procedure:
 Maximum # iterations   MaxIter         ....   125
 SCF integral mode      SCFMode         .... Direct
   Integral package                     .... SHARK and LIBINT hybrid scheme
 Reset frequency        DirectResetFreq ....    20
 Integral Threshold     Thresh          ....  2.500e-11 Eh
 Primitive CutOff       TCut            ....  2.500e-12 Eh

Convergence Tolerance:
 Convergence Check Mode ConvCheckMode   .... Total+1el-Energy
 Convergence forced     ConvForced      .... 1
 Energy Change          TolE            ....  1.000e-08 Eh
 1-El. energy change                    ....  1.000e-05 Eh
 Orbital Gradient       TolG            ....  1.000e-05
 Orbital Rotation angle TolX            ....  1.000e-05
 DIIS Error             TolErr          ....  5.000e-07

------------------------------
INITIAL GUESS: MODEL POTENTIAL
------------------------------
Loading Hartree-Fock densities                     ... done
Calculating cut-offs                               ... done
Initializing the effective Hamiltonian             ... done
Setting up the integral package (SHARK)            ... done
Starting the Coulomb interaction                   ... done (   0.1 sec)
Making the grid                                    ... done (   0.3 sec)
Mapping shells                                     ... done
Starting the XC term evaluation                    ... done (   0.2 sec)
  promolecular density results
     # of electrons  =     65.994447606
     EX+EC           =    -42.402848093
Transforming the Hamiltonian                       ... done (   0.0 sec)
Diagonalizing the Hamiltonian                      ... done (   0.0 sec)
Back transforming the eigenvectors                 ... done (   0.0 sec)
Now organizing SCF variables                       ... done
                      ------------------
                      INITIAL GUESS DONE (   0.7 sec)
                      ------------------
             **** ENERGY FILE WAS UPDATED (s1_freq_2_wat.en.tmp) ****
Finished Guess after   1.4 sec
Maximum memory used throughout the entire GUESS-calculation: 15.9 MB


           ************************************************************
           *        Program running with 8 parallel MPI-processes     *
           *              working on a common directory               *
           ************************************************************

-------------------------------------------------------------------------------------------
                                      ORCA LEAN-SCF
                              memory conserving SCF solver
-------------------------------------------------------------------------------------------

----------------------------------------D-I-I-S--------------------------------------------
Iteration    Energy (Eh)           Delta-E    RMSDP     MaxDP     DIISErr   Damp  Time(sec)
-------------------------------------------------------------------------------------------
               ***  Starting incremental Fock matrix formation  ***
    1    -495.0500339510528534     0.00e+00  9.16e-03  2.11e-01  1.24e-01  0.700   9.9
    2    -495.0956250394459062    -4.56e-02  6.65e-03  1.48e-01  6.66e-02  0.700   9.3
                               ***Turning on AO-DIIS***
    3    -495.1202251329581827    -2.46e-02  3.29e-03  5.29e-02  4.11e-02  0.700   9.1
    4    -495.1354239393982084    -1.52e-02  7.34e-03  1.24e-01  2.88e-02  0.000   8.9
    5    -495.1695415089770336    -3.41e-02  7.51e-04  1.06e-02  4.19e-03  0.000   9.0
    6    -495.1696992821505887    -1.58e-04  2.78e-04  3.30e-03  3.45e-03  0.000   8.5
                              *** Initializing SOSCF ***
---------------------------------------S-O-S-C-F--------------------------------------
Iteration    Energy (Eh)           Delta-E    RMSDP     MaxDP     MaxGrad    Time(sec)
--------------------------------------------------------------------------------------
    7    -495.1697417958367282    -4.25e-05  1.63e-04  2.39e-03  1.64e-03     8.2
               *** Restarting incremental Fock matrix formation ***
    8    -495.1697555522836751    -1.38e-05  1.05e-04  1.93e-03  2.80e-04     9.6
    9    -495.1697588511217987    -3.30e-06  8.64e-05  1.57e-03  2.43e-04     7.6
   10    -495.1697593388401515    -4.88e-07  3.93e-05  5.65e-04  1.74e-04     7.7
   11    -495.1697597477250952    -4.09e-07  1.55e-05  2.59e-04  3.51e-05     7.2
   12    -495.1697597768031187    -2.91e-08  9.72e-06  1.81e-04  1.55e-05     6.8
   13    -495.1697597939322009    -1.71e-08  4.72e-06  1.16e-04  5.25e-06     6.2
   14    -495.1697597953847776    -1.45e-09  5.71e-06  1.29e-04  6.14e-06     6.0
                 **** Energy Check signals convergence ****

               *****************************************************
               *                     SUCCESS                       *
               *           SCF CONVERGED AFTER  14 CYCLES          *
               *****************************************************

             **** ENERGY FILE WAS UPDATED (s1_freq_2_wat.en.tmp) ****

----------------
TOTAL SCF ENERGY
----------------

Total Energy       :       -495.16975979461535 Eh          -13474.25418 eV

Components:
Nuclear Repulsion  :        378.45681416470819 Eh           10298.33347 eV
Electronic Energy  :       -873.62657395932354 Eh          -23772.58765 eV
One Electron Energy:      -1427.63255255031709 Eh          -38847.85674 eV
Two Electron Energy:        554.00597859099355 Eh           15075.26909 eV

Virial components:
Potential Energy   :       -987.13294571677625 Eh          -26861.25305 eV
Kinetic Energy     :        491.96318592216096 Eh           13386.99887 eV
Virial Ratio       :          2.00651791427532

DFT components:
N(Alpha)           :       33.000071032413 electrons
N(Beta)            :       33.000071032413 electrons
N(Total)           :       66.000142064825 electrons
E(XC)              :      -43.154125788226 Eh       

---------------
SCF CONVERGENCE
---------------

  Last Energy change         ...    1.4526e-09  Tolerance :   1.0000e-08
  Last MAX-Density change    ...    1.2936e-04  Tolerance :   1.0000e-07
  Last RMS-Density change    ...    5.7121e-06  Tolerance :   5.0000e-09
  Last DIIS Error            ...    1.6434e-03  Tolerance :   5.0000e-07
  Last Orbital Gradient      ...    6.1358e-06  Tolerance :   1.0000e-05
  Last Orbital Rotation      ...    7.4356e-06  Tolerance :   1.0000e-05


----------------
ORBITAL ENERGIES
----------------

  NO   OCC          E(Eh)            E(eV) 
   0   2.0000     -19.370377      -527.0948 
   1   2.0000     -19.364613      -526.9379 
   2   2.0000     -19.337686      -526.2052 
   3   2.0000     -19.260038      -524.0923 
   4   2.0000     -19.242367      -523.6114 
   5   2.0000     -10.502386      -285.7845 
   6   2.0000     -10.486903      -285.3631 
   7   2.0000     -10.359358      -281.8925 
   8   2.0000      -1.269259       -34.5383 
   9   2.0000      -1.207172       -32.8488 
  10   2.0000      -1.177595       -32.0440 
  11   2.0000      -1.099100       -29.9080 
  12   2.0000      -1.082982       -29.4694 
  13   2.0000      -0.930095       -25.3092 
  14   2.0000      -0.839287       -22.8382 
  15   2.0000      -0.735619       -20.0172 
  16   2.0000      -0.666754       -18.1433 
  17   2.0000      -0.640536       -17.4299 
  18   2.0000      -0.620262       -16.8782 
  19   2.0000      -0.610279       -16.6065 
  20   2.0000      -0.585506       -15.9324 
  21   2.0000      -0.569579       -15.4990 
  22   2.0000      -0.560587       -15.2544 
  23   2.0000      -0.552267       -15.0280 
  24   2.0000      -0.523586       -14.2475 
  25   2.0000      -0.502725       -13.6798 
  26   2.0000      -0.486122       -13.2280 
  27   2.0000      -0.469367       -12.7721 
  28   2.0000      -0.462236       -12.5781 
  29   2.0000      -0.444538       -12.0965 
  30   2.0000      -0.412942       -11.2367 
  31   2.0000      -0.390998       -10.6396 
  32   2.0000      -0.372797       -10.1443 
  33   0.0000      -0.102839        -2.7984 
  34   0.0000       0.020625         0.5612 
  35   0.0000       0.037961         1.0330 
  36   0.0000       0.042725         1.1626 
  37   0.0000       0.051062         1.3895 
  38   0.0000       0.066049         1.7973 
  39   0.0000       0.071906         1.9567 
  40   0.0000       0.074685         2.0323 
  41   0.0000       0.075475         2.0538 
  42   0.0000       0.091882         2.5002 
  43   0.0000       0.100545         2.7360 
*Only the first 10 virtual orbitals were printed.

                    ********************************
                    * MULLIKEN POPULATION ANALYSIS *
                    ********************************

-----------------------
MULLIKEN ATOMIC CHARGES
-----------------------
   0 C :    0.223539
   1 C :    0.974798
   2 C :    0.554390
   3 H :    0.012940
   4 H :    0.033569
   5 H :   -0.222995
   6 O :   -0.806644
   7 O :   -0.566294
   8 O :   -0.503801
   9 H :    0.229538
  10 O :   -0.302560
  11 H :    0.116311
  12 H :    0.192528
  13 O :   -0.264286
  14 H :    0.093474
  15 H :    0.235494
Sum of atomic charges:    0.0000000

--------------------------------
MULLIKEN REDUCED ORBITAL CHARGES
--------------------------------
  0 C s       :     3.192167  s :     3.192167
      pz      :     0.651458  p :     2.241250
      px      :     0.781202
      py      :     0.808591
      dz2     :     0.009797  d :     0.343044
      dxz     :     0.067490
      dyz     :     0.022467
      dx2y2   :     0.170887
      dxy     :     0.072402

  1 C s       :     3.071568  s :     3.071568
      pz      :     0.730642  p :     1.826408
      px      :     0.489155
      py      :     0.606612
      dz2     :    -0.004041  d :     0.127226
      dxz     :     0.007333
      dyz     :     0.053193
      dx2y2   :     0.081732
      dxy     :    -0.010990

  2 C s       :     3.006690  s :     3.006690
      pz      :     0.875428  p :     2.481679
      px      :     0.981070
      py      :     0.625182
      dz2     :    -0.008830  d :    -0.042759
      dxz     :    -0.018249
      dyz     :     0.003718
      dx2y2   :     0.006613
      dxy     :    -0.026011

  3 H s       :     0.990600  s :     0.990600
      pz      :     0.009275  p :    -0.003541
      px      :    -0.010900
      py      :    -0.001916

  4 H s       :     0.973492  s :     0.973492
      pz      :     0.007857  p :    -0.007061
      px      :    -0.009704
      py      :    -0.005213

  5 H s       :     1.213762  s :     1.213762
      pz      :    -0.010800  p :     0.009233
      px      :     0.023824
      py      :    -0.003791

  6 O s       :     4.140157  s :     4.140157
      pz      :     1.387519  p :     4.632472
      px      :     1.940792
      py      :     1.304162
      dz2     :     0.001033  d :     0.034015
      dxz     :     0.000648
      dyz     :     0.016343
      dx2y2   :     0.008804
      dxy     :     0.007187

  7 O s       :     4.059316  s :     4.059316
      pz      :     1.387987  p :     4.469857
      px      :     1.775759
      py      :     1.306111
      dz2     :     0.001820  d :     0.037120
      dxz     :     0.001891
      dyz     :     0.016867
      dx2y2   :     0.007071
      dxy     :     0.009472

  8 O s       :     3.990268  s :     3.990268
      pz      :     1.753680  p :     4.492509
      px      :     1.511485
      py      :     1.227345
      dz2     :     0.000933  d :     0.021024
      dxz     :     0.009664
      dyz     :     0.004462
      dx2y2   :     0.003772
      dxy     :     0.002192

  9 H s       :     0.699394  s :     0.699394
      pz      :     0.024399  p :     0.071068
      px      :     0.027893
      py      :     0.018776

 10 O s       :     3.808150  s :     3.808150
      pz      :     1.902862  p :     4.502780
      px      :     1.338469
      py      :     1.261449
      dz2     :    -0.001891  d :    -0.008370
      dxz     :     0.001842
      dyz     :     0.001493
      dx2y2   :    -0.010950
      dxy     :     0.001136

 11 H s       :     0.781037  s :     0.781037
      pz      :     0.047314  p :     0.102652
      px      :     0.023938
      py      :     0.031401

 12 H s       :     0.745677  s :     0.745677
      pz      :     0.046082  p :     0.061796
      px      :     0.000818
      py      :     0.014896

 13 O s       :     3.769922  s :     3.769922
      pz      :     1.314045  p :     4.502421
      px      :     1.459339
      py      :     1.729037
      dz2     :    -0.006883  d :    -0.008057
      dxz     :     0.001212
      dyz     :    -0.000802
      dx2y2   :    -0.000018
      dxy     :    -0.001566

 14 H s       :     0.795995  s :     0.795995
      pz      :     0.038447  p :     0.110532
      px      :     0.031447
      py      :     0.040638

 15 H s       :     0.697952  s :     0.697952
      pz      :     0.029628  p :     0.066555
      px      :     0.011013
      py      :     0.025913



                     *******************************
                     * LOEWDIN POPULATION ANALYSIS *
                     *******************************

----------------------
LOEWDIN ATOMIC CHARGES
----------------------
   0 C :   -0.197429
   1 C :   -0.309319
   2 C :    0.215753
   3 H :    0.022776
   4 H :    0.025266
   5 H :   -0.002287
   6 O :    0.165765
   7 O :    0.162387
   8 O :    0.278779
   9 H :   -0.085798
  10 O :    0.197376
  11 H :   -0.127181
  12 H :   -0.206118
  13 O :    0.198075
  14 H :   -0.115569
  15 H :   -0.222476

-------------------------------
LOEWDIN REDUCED ORBITAL CHARGES
-------------------------------
  0 C s       :     2.604543  s :     2.604543
      pz      :     0.569659  p :     2.444578
      px      :     0.956686
      py      :     0.918233
      dz2     :     0.098289  d :     1.148308
      dxz     :     0.128495
      dyz     :     0.168288
      dx2y2   :     0.371080
      dxy     :     0.382155

  1 C s       :     2.569888  s :     2.569888
      pz      :     0.640282  p :     2.428758
      px      :     0.899610
      py      :     0.888867
      dz2     :     0.118678  d :     1.310672
      dxz     :     0.097883
      dyz     :     0.237148
      dx2y2   :     0.410110
      dxy     :     0.446854

  2 C s       :     2.602052  s :     2.602052
      pz      :     0.944991  p :     2.798771
      px      :     0.915440
      py      :     0.938341
      dz2     :     0.066310  d :     0.383423
      dxz     :     0.083698
      dyz     :     0.027912
      dx2y2   :     0.104643
      dxy     :     0.100861

  3 H s       :     0.705991  s :     0.705991
      pz      :     0.115510  p :     0.271233
      px      :     0.086785
      py      :     0.068939

  4 H s       :     0.705362  s :     0.705362
      pz      :     0.116346  p :     0.269372
      px      :     0.085752
      py      :     0.067274

  5 H s       :     0.712762  s :     0.712762
      pz      :     0.072750  p :     0.289525
      px      :     0.090857
      py      :     0.125918

  6 O s       :     3.351875  s :     3.351875
      pz      :     1.255728  p :     4.298004
      px      :     1.639627
      py      :     1.402649
      dz2     :     0.023994  d :     0.184356
      dxz     :     0.001515
      dyz     :     0.025901
      dx2y2   :     0.065940
      dxy     :     0.067006

  7 O s       :     3.359995  s :     3.359995
      pz      :     1.271889  p :     4.303359
      px      :     1.588503
      py      :     1.442967
      dz2     :     0.021401  d :     0.174259
      dxz     :     0.004040
      dyz     :     0.030948
      dx2y2   :     0.059971
      dxy     :     0.057899

  8 O s       :     3.242557  s :     3.242557
      pz      :     1.551001  p :     4.300080
      px      :     1.477850
      py      :     1.271230
      dz2     :     0.024164  d :     0.178584
      dxz     :     0.014080
      dyz     :     0.017797
      dx2y2   :     0.045679
      dxy     :     0.076864

  9 H s       :     0.582721  s :     0.582721
      pz      :     0.110825  p :     0.503077
      px      :     0.223821
      py      :     0.168431

 10 O s       :     3.262760  s :     3.262760
      pz      :     1.708321  p :     4.486299
      px      :     1.419150
      py      :     1.358828
      dz2     :     0.010603  d :     0.053565
      dxz     :     0.000386
      dyz     :     0.000308
      dx2y2   :     0.040214
      dxy     :     0.002055

 11 H s       :     0.636034  s :     0.636034
      pz      :     0.146979  p :     0.491147
      px      :     0.117834
      py      :     0.226334

 12 H s       :     0.608796  s :     0.608796
      pz      :     0.148205  p :     0.597322
      px      :     0.335605
      py      :     0.113512

 13 O s       :     3.261105  s :     3.261105
      pz      :     1.388808  p :     4.487926
      px      :     1.488489
      py      :     1.610628
      dz2     :     0.027212  d :     0.052894
      dxz     :     0.002791
      dyz     :     0.005329
      dx2y2   :     0.006259
      dxy     :     0.011304

 14 H s       :     0.638637  s :     0.638637
      pz      :     0.216056  p :     0.476932
      px      :     0.119813
      py      :     0.141064

 15 H s       :     0.602989  s :     0.602989
      pz      :     0.118210  p :     0.619487
      px      :     0.320471
      py      :     0.180805



                      *****************************
                      * MAYER POPULATION ANALYSIS *
                      *****************************

  NA   - Mulliken gross atomic population
  ZA   - Total nuclear charge
  QA   - Mulliken gross atomic charge
  VA   - Mayer's total valence
  BVA  - Mayer's bonded valence
  FA   - Mayer's free valence

  ATOM       NA         ZA         QA         VA         BVA        FA
  0 C      5.7765     6.0000     0.2235     3.7997     3.7997     0.0000
  1 C      5.0252     6.0000     0.9748     2.5522     2.5522     0.0000
  2 C      5.4456     6.0000     0.5544     3.8504     3.8504     0.0000
  3 H      0.9871     1.0000     0.0129     0.8920     0.8920     0.0000
  4 H      0.9664     1.0000     0.0336     0.8781     0.8781     0.0000
  5 H      1.2230     1.0000    -0.2230     0.8592     0.8592     0.0000
  6 O      8.8066     8.0000    -0.8066     1.7423     1.7423     0.0000
  7 O      8.5663     8.0000    -0.5663     1.8351     1.8351     0.0000
  8 O      8.5038     8.0000    -0.5038     1.8906     1.8906     0.0000
  9 H      0.7705     1.0000     0.2295     0.9681     0.9681     0.0000
 10 O      8.3026     8.0000    -0.3026     1.9279     1.9279     0.0000
 11 H      0.8837     1.0000     0.1163     1.0225     1.0225     0.0000
 12 H      0.8075     1.0000     0.1925     0.9366     0.9366     0.0000
 13 O      8.2643     8.0000    -0.2643     1.9692     1.9692    -0.0000
 14 H      0.9065     1.0000     0.0935     1.0573     1.0573    -0.0000
 15 H      0.7645     1.0000     0.2355     0.8939     0.8939    -0.0000

  Mayer bond orders larger than 0.100000
B(  0-C ,  1-C ) :   0.4683 B(  0-C ,  2-C ) :   1.3884 B(  0-C ,  3-H ) :   0.1616 
B(  0-C ,  4-H ) :   0.1583 B(  0-C ,  5-H ) :   0.2518 B(  0-C ,  6-O ) :   1.3928 
B(  0-C ,  7-O ) :  -0.1063 B(  0-C ,  8-O ) :   0.1675 B(  1-C ,  5-H ) :  -0.1393 
B(  1-C ,  7-O ) :   1.6818 B(  1-C ,  8-O ) :   0.7149 B(  2-C ,  3-H ) :   0.8505 
B(  2-C ,  4-H ) :   0.8464 B(  2-C ,  5-H ) :   0.8100 B(  6-O ,  9-H ) :   0.1035 
B(  8-O ,  9-H ) :   0.9240 B( 10-O , 11-H ) :   1.0469 B( 10-O , 12-H ) :   0.9111 
B( 13-O , 14-H ) :   1.0710 B( 13-O , 15-H ) :   0.8549 

-------
TIMINGS
-------

Total SCF time: 0 days 0 hours 2 min 0 sec 

Total time                  ....     120.313 sec
Sum of individual times     ....     114.427 sec  ( 95.1%)

SCF preparation             ....       0.536 sec  (  0.4%)
Fock matrix formation       ....     113.006 sec  ( 93.9%)
  Startup                   ....       0.057 sec  (  0.1% of F)
  Coulomb+Exchange Fock     ....     112.535 sec  ( 99.6% of F)
  XC integration            ....       5.996 sec  (  5.3% of F)
    XC Preparation          ....       0.000 sec  (  0.0% of XC)
    Basis function eval.    ....       2.045 sec  ( 34.1% of XC)
    Density eval.           ....       1.095 sec  ( 18.3% of XC)
    XC-Functional eval.     ....       0.472 sec  (  7.9% of XC)
    XC-Potential eval.      ....       1.679 sec  ( 28.0% of XC)
Diagonalization             ....       0.000 sec  (  0.0%)
Density matrix formation    ....       0.185 sec  (  0.2%)
Total Energy calculation    ....       0.035 sec  (  0.0%)
Population analysis         ....       0.076 sec  (  0.1%)
Orbital Transformation      ....       0.052 sec  (  0.0%)
Orbital Orthonormalization  ....       0.000 sec  (  0.0%)
DIIS solution               ....       0.311 sec  (  0.3%)
SOSCF solution              ....       0.208 sec  (  0.2%)
Finished LeanSCF after 120.4 sec

Maximum memory used throughout the entire LEANSCF-calculation: 18.1 MB


           ************************************************************
           *        Program running with 8 parallel MPI-processes     *
           *              working on a common directory               *
           ************************************************************

------------------------------------------------------------------------------
                         ORCA PROPERTY INTEGRAL CALCULATIONS
------------------------------------------------------------------------------

GBWName                                   ... s1_freq_2_wat.gbw
Number of atoms                           ...     16
Number of basis functions                 ...    304
Max core memory                           ...   8000 MB

Dipole integrals                          ... YES
Quadrupole integrals                      ...  NO
Linear momentum integrals                 ... YES
Angular momentum integrals                ... YES
Higher moments length integrals           ...  NO
Higher moments velocity integrals         ...  NO
Kinetic energy integrals                  ...  NO
GIAO right hand sides                     ...  NO
GIAO dipole derivative integrals          ...  NO
SOC integrals                             ...  NO
EPR diamagnetic integrals (GIAO)          ...  NO
EPR gauge integrals                       ...  NO
Field gradient integrals                  ...  NO (   0 nuclei)
Spin-dipole/Fermi contact integrals       ...  NO (   0 nuclei)
Contact density integrals                 ...  NO (   0 nuclei)
Nucleus-orbit integrals                   ...  NO (   0 nuclei)
Geometric perturbations                   ...  NO (  16 nuclei)

Choice of electric origin   ... Center of mass
Position of electric origin ... (  0.2237, -0.3627,  0.1020) 
Choice of magnetic origin   ... GIAO
Position of magnetic origin ... (  0.0000,  0.0000,  0.0000) 

Calculating integrals                     ... Electric Dipole (Length)     done (  0.0 sec)
Calculating integrals                     ... Linear Momentum              done (  0.0 sec)
Calculating integrals                     ... Angular Momentum  (ElOri)    done (  0.0 sec)

Property integrals calculated in   0.1 sec

Maximum memory used throughout the entire PROPINT-calculation: 16.3 MB


           ************************************************************
           *        Program running with 8 parallel MPI-processes     *
           *              working on a common directory               *
           ************************************************************
------------------------------------------------------------------------------
                        ORCA TD-DFT/TDA CALCULATION
------------------------------------------------------------------------------

Input orbitals are from        ... s1_freq_2_wat.gbw
CI-vector output               ... s1_freq_2_wat.cis
Solver                         ... FN-2001
Tamm-Dancoff approximation     ... operative
CIS-Integral strategy          ... AO-integrals
Integral handling              ... AO integral Direct
Max. core memory used          ... 8000 MB
Reference state                ... RHF
Generation of triplets         ... off
Follow IRoot                   ... off
Number of operators            ... 1
Orbital ranges used for CIS calculation:
 Operator 0:  Orbitals   8... 32  to  33...255
XAS localization array:
 Operator 0:  Orbitals  -1... -1

-------------------
XC-INTEGRATION GRID
-------------------

General Integration Accuracy     IntAcc      ... 3.467
Radial Grid Type                 RadialGrid  ... OptM3 with GC (2021)
Angular Grid (max. ang.)         AngularGrid ... 1 (Lebedev-50)
Angular grid pruning method      GridPruning ... 4 (adaptive)
Weight generation scheme         WeightScheme... mBecke (2022)
Basis function cutoff            BFCut       ... 1.0000e-11
Integration weight cutoff        WCut        ... 1.0000e-14
Partially contracted basis set               ... off
Rotationally invariant grid construction     ... off
Angular grids for H and He will be reduced by one unit
Diffuse basis detected: some atoms will have their outermost
                        angular grid increased by 1.

Total number of grid points                  ...    11325
Total number of batches                      ...      187
Average number of points per batch           ...       60
Average number of grid points per atom       ...      708

---------------
TD-DFT XC SETUP
---------------

DFT calculation                         ... on
Name of the grid file                   ... s1_freq_2_wat.grid_cis.tmp
Functional (TD-DFT)
  Functional kind                       .... Exchange-Correlation
  Functional name                       .... wB97X-D range-separated functional
  Functional family                     .... Hybrid GGA
  Functional refs                              
    [ 0] J.-D. Chai and M. Head-Gordon.,  Phys. Chem. Chem. Phys. 10, 6615-6620 (2008), doi: 10.1039/B810189B
  Fraction of HF Exchange (short range) .... 0.2220
  Fraction of HF Exchange ( int64 range )  .... 1.0000
  Range separation parameter mu         .... 0.2000
  Functional external parameters        .... 18
    Parameter  0 _cx0       =  7.779640e-01 : u^0 coefficient for exchange
    Parameter  1 _cx1       =  6.611600e-01 : u^1 coefficient for exchange
    Parameter  2 _cx2       =  5.745410e-01 : u^2 coefficient for exchange
    Parameter  3 _cx3       = -5.256710e+00 : u^3 coefficient for exchange
    Parameter  4 _cx4       =  1.163860e+01 : u^4 coefficient for exchange
    Parameter  5 _css0      =  1.000000e+00 : u^0 coefficient for same-spin correlation
    Parameter  6 _css1      = -6.905390e+00 : u^1 coefficient for same-spin correlation
    Parameter  7 _css2      =  3.133430e+01 : u^2 coefficient for same-spin correlation
    Parameter  8 _css3      = -5.105330e+01 : u^3 coefficient for same-spin correlation
    Parameter  9 _css4      =  2.644230e+01 : u^4 coefficient for same-spin correlation
    Parameter 10 _cos0      =  1.000000e+00 : u^0 coefficient for opposite-spin correlation
    Parameter 11 _cos1      =  1.794130e+00 : u^1 coefficient for opposite-spin correlation
    Parameter 12 _cos2      = -1.204770e+01 : u^2 coefficient for opposite-spin correlation
    Parameter 13 _cos3      =  1.408470e+01 : u^3 coefficient for opposite-spin correlation
    Parameter 14 _cos4      = -8.508090e+00 : u^4 coefficient for opposite-spin correlation
    Parameter 15 _alpha     =  1.000000e+00 : fraction of HF exchange
    Parameter 16 _beta      = -7.779640e-01 : fraction of short-range exchange
    Parameter 17 _omega     =  2.000000e-01 : range-separation constant
Hybrid DFT                              ... on
   Exchange mixing (TD-DFT)             ...  0.222
   GGA exch. scaling (TD-DFT)           ...  1.000
   GGA corr. scaling (TD-DFT)           ...  1.000
Range-Separated Exchange                ... on
   Range Range separation parameter mu  .... 0.200
   Max. amount of RS exchange (TD-DFT)  ...  0.778

Building densities             ... done
Calculating rho(r) on the grid ... done
Building xc-kernel on the grid ... done
                    *** TD-DFT CALCULATION INITIALIZED ***

------------------------
DAVIDSON-DIAGONALIZATION
------------------------

Dimension of the eigenvalue problem            ...   5575
Number of roots to be determined               ...     10
Maximum size of the expansion space            ...    100
Maximum number of iterations                   ...    100
Convergence tolerance for the residual         ...    2.500e-07
Convergence tolerance for the energies         ...    2.500e-07
Orthogonality tolerance                        ...    1.000e-14
Level Shift                                    ...    0.000e+00
Constructing the preconditioner                ... o.k.
Building the initial guess                     ... o.k.
Number of trial vectors determined             ...    100


                       ****Iteration    0****
   Time for iteration     :  TOTAL=176.6 TRAFO=0.2 2-EL=174.5 XC=1.8
   Size of expansion space: 30
   Lowest Energy          :     0.117800304525
   Maximum Energy change  :     0.275630062401 (vector 9)
   Maximum residual norm  :     0.048322911961

                       ****Iteration    1****
   Time for iteration     :  TOTAL=52.4 TRAFO=0.1 2-EL=51.5 XC=0.8
   Size of expansion space: 40
   Lowest Energy          :     0.112483719680
   Maximum Energy change  :     0.020803710628 (vector 4)
   Maximum residual norm  :     0.000974984036

                       ****Iteration    2****
   Time for iteration     :  TOTAL=50.8 TRAFO=0.1 2-EL=50.0 XC=0.7
   Size of expansion space: 50
   Lowest Energy          :     0.112228841287
   Maximum Energy change  :     0.001334326784 (vector 8)
   Maximum residual norm  :     0.000474198977

                       ****Iteration    3****
   Time for iteration     :  TOTAL=49.5 TRAFO=0.0 2-EL=48.9 XC=0.6
   Size of expansion space: 60
   Lowest Energy          :     0.112218745990
   Maximum Energy change  :     0.002697380636 (vector 8)
   Maximum residual norm  :     0.001138499278

                       ****Iteration    4****
   Time for iteration     :  TOTAL=49.7 TRAFO=0.1 2-EL=49.0 XC=0.6
   Size of expansion space: 70
   Lowest Energy          :     0.112218456681
   Maximum Energy change  :     0.001630924856 (vector 8)
   Maximum residual norm  :     0.000088019605

                       ****Iteration    5****
   Time for iteration     :  TOTAL=50.2 TRAFO=0.0 2-EL=49.5 XC=0.7
   Size of expansion space: 80
   Lowest Energy          :     0.112218450260
   Maximum Energy change  :     0.000118347268 (vector 8)
   Maximum residual norm  :     0.000005263936

                       ****Iteration    6****
   Time for iteration     :  TOTAL=50.2 TRAFO=0.0 2-EL=49.5 XC=0.6
   Size of expansion space: 90
   Lowest Energy          :     0.112218450121
   Maximum Energy change  :     0.000015844130 (vector 9)
   Maximum residual norm  :     0.000006160813

                       ****Iteration    7****
   Time for iteration     :  TOTAL=49.4 TRAFO=0.0 2-EL=48.7 XC=0.6
   Size of expansion space: 100
   Lowest Energy          :     0.112218450118
   Maximum Energy change  :     0.000016013460 (vector 9)
   Maximum residual norm  :     0.000002315775
   Rebuilding the expansion space

                       ****Iteration    8****
   Time for iteration     :  TOTAL=104.3 TRAFO=0.0 2-EL=103.0 XC=1.2
   Size of expansion space: 20
   Lowest Energy          :     0.112218450116
   Maximum Energy change  :     0.000002549740 (vector 9)
   Maximum residual norm  :     0.000000323517

                       ****Iteration    9****
   Time for iteration     :  TOTAL=45.9 TRAFO=0.0 2-EL=45.3 XC=0.6
   Size of expansion space: 29
   Lowest Energy          :     0.112218450116
   Maximum Energy change  :     0.000000407372 (vector 9)
   Maximum residual norm  :     0.000000065814

      *** CONVERGENCE OF RESIDUAL NORM REACHED ***

Storing the converged CI vectors               ... s1_freq_2_wat.cis1

                 *** DAVIDSON DONE ***

Total time for solving the CIS problem:   684.771sec

------------------------------------
TD-DFT/TDA EXCITED STATES (SINGLETS)
------------------------------------

the weight of the individual excitations are printed if larger than 1.0e-02

STATE  1:  E=   0.112218 au      3.054 eV    24629.1 cm**-1 <S**2> =   0.000000 Mult 1
    27a ->  33a  :     0.037803 (c=  0.19443004)
    29a ->  33a  :     0.065720 (c=  0.25635938)
    30a ->  33a  :     0.858649 (c=  0.92663327)
    31a ->  33a  :     0.010067 (c= -0.10033505)

STATE  2:  E=   0.147434 au      4.012 eV    32358.1 cm**-1 <S**2> =   0.000000 Mult 1
    32a ->  33a  :     0.982766 (c= -0.99134531)
    32a ->  41a  :     0.012991 (c= -0.11397958)

STATE  3:  E=   0.153916 au      4.188 eV    33780.6 cm**-1 <S**2> =   0.000000 Mult 1
    26a ->  33a  :     0.138527 (c= -0.37219211)
    27a ->  33a  :     0.010148 (c=  0.10073626)
    29a ->  33a  :     0.177362 (c= -0.42114406)
    30a ->  33a  :     0.044390 (c=  0.21068952)
    30a ->  41a  :     0.010694 (c=  0.10341078)
    31a ->  33a  :     0.602271 (c=  0.77606110)

STATE  4:  E=   0.159346 au      4.336 eV    34972.3 cm**-1 <S**2> =   0.000000 Mult 1
    26a ->  33a  :     0.218282 (c= -0.46720699)
    27a ->  33a  :     0.014036 (c=  0.11847220)
    29a ->  33a  :     0.345255 (c= -0.58758364)
    30a ->  33a  :     0.012326 (c=  0.11102205)
    30a ->  41a  :     0.018044 (c=  0.13432711)
    31a ->  33a  :     0.375172 (c= -0.61251290)

STATE  5:  E=   0.208975 au      5.686 eV    45864.6 cm**-1 <S**2> =   0.000000 Mult 1
    25a ->  33a  :     0.018081 (c=  0.13446619)
    28a ->  33a  :     0.924556 (c=  0.96153815)

STATE  6:  E=   0.225661 au      6.141 eV    49527.0 cm**-1 <S**2> =   0.000000 Mult 1
    21a ->  33a  :     0.010997 (c= -0.10486833)
    24a ->  33a  :     0.364165 (c= -0.60346081)
    27a ->  33a  :     0.536353 (c=  0.73236112)
    29a ->  33a  :     0.020718 (c=  0.14393898)
    30a ->  33a  :     0.032633 (c= -0.18064488)

STATE  7:  E=   0.230023 au      6.259 eV    50484.2 cm**-1 <S**2> =   0.000000 Mult 1
    23a ->  33a  :     0.091139 (c= -0.30189158)
    24a ->  33a  :     0.044202 (c=  0.21024226)
    26a ->  33a  :     0.479652 (c=  0.69256879)
    27a ->  33a  :     0.090608 (c=  0.30101185)
    29a ->  33a  :     0.260852 (c= -0.51073646)

STATE  8:  E=   0.238675 au      6.495 eV    52383.2 cm**-1 <S**2> =   0.000000 Mult 1
    23a ->  33a  :     0.012905 (c= -0.11359901)
    24a ->  33a  :     0.548761 (c=  0.74078371)
    26a ->  33a  :     0.069304 (c= -0.26325729)
    27a ->  33a  :     0.238088 (c=  0.48794254)
    29a ->  33a  :     0.083271 (c=  0.28856721)
    30a ->  33a  :     0.029016 (c= -0.17033991)

STATE  9:  E=   0.257081 au      6.996 eV    56422.8 cm**-1 <S**2> =   0.000000 Mult 1
    22a ->  33a  :     0.037921 (c=  0.19473420)
    23a ->  33a  :     0.068847 (c=  0.26238778)
    25a ->  33a  :     0.737143 (c=  0.85857011)
    26a ->  33a  :     0.011368 (c=  0.10662197)
    28a ->  33a  :     0.010971 (c= -0.10474203)
    31a ->  34a  :     0.027698 (c=  0.16642653)

STATE 10:  E=   0.262796 au      7.151 eV    57677.1 cm**-1 <S**2> =   0.000000 Mult 1
    19a ->  33a  :     0.027191 (c= -0.16489767)
    23a ->  33a  :     0.737509 (c= -0.85878318)
    24a ->  33a  :     0.018725 (c= -0.13683780)
    25a ->  33a  :     0.054405 (c=  0.23324820)
    26a ->  33a  :     0.025396 (c= -0.15935980)
    27a ->  33a  :     0.031710 (c= -0.17807432)
    29a ->  33a  :     0.021617 (c=  0.14702635)
    31a ->  34a  :     0.026670 (c=  0.16330886)
    31a ->  36a  :     0.010972 (c=  0.10474558)

Storing amplitudes in GBW file ... 
... GBW file created

------------------------------------------
NATURAL TRANSITION ORBITALS FOR STATE    1
------------------------------------------

Making the (pseudo)densities                       ... done
Solving eigenvalue problem for the occupied space  ... done
Solving eigenvalue problem for the virtual space   ... done
Natural Transition Orbitals were saved in s1_freq_2_wat.s1.nto
Threshold for printing occupation numbers 0.001000

 E=   0.112218 au      3.054 eV    24629.1 cm**-1
    32a ->  33a  : n=  0.98429768
    31a ->  34a  : n=  0.01512818


------------------------------------------
NATURAL TRANSITION ORBITALS FOR STATE    2
------------------------------------------

Making the (pseudo)densities                       ... done
Solving eigenvalue problem for the occupied space  ... done
Solving eigenvalue problem for the virtual space   ... done
Natural Transition Orbitals were saved in s1_freq_2_wat.s2.nto
Threshold for printing occupation numbers 0.001000

 E=   0.147434 au      4.012 eV    32358.1 cm**-1
    32a ->  33a  : n=  0.99931718


------------------------------------------
NATURAL TRANSITION ORBITALS FOR STATE    3
------------------------------------------

Making the (pseudo)densities                       ... done
Solving eigenvalue problem for the occupied space  ... done
Solving eigenvalue problem for the virtual space   ... done
Natural Transition Orbitals were saved in s1_freq_2_wat.s3.nto
Threshold for printing occupation numbers 0.001000

 E=   0.153916 au      4.188 eV    33780.6 cm**-1
    32a ->  33a  : n=  0.97759964
    31a ->  34a  : n=  0.02163699


------------------------------------------
NATURAL TRANSITION ORBITALS FOR STATE    4
------------------------------------------

Making the (pseudo)densities                       ... done
Solving eigenvalue problem for the occupied space  ... done
Solving eigenvalue problem for the virtual space   ... done
Natural Transition Orbitals were saved in s1_freq_2_wat.s4.nto
Threshold for printing occupation numbers 0.001000

 E=   0.159346 au      4.336 eV    34972.3 cm**-1
    32a ->  33a  : n=  0.97081993
    31a ->  34a  : n=  0.02824566


------------------------------------------
NATURAL TRANSITION ORBITALS FOR STATE    5
------------------------------------------

Making the (pseudo)densities                       ... done
Solving eigenvalue problem for the occupied space  ... done
Solving eigenvalue problem for the virtual space   ... done
Natural Transition Orbitals were saved in s1_freq_2_wat.s5.nto
Threshold for printing occupation numbers 0.001000

 E=   0.208975 au      5.686 eV    45864.6 cm**-1
    32a ->  33a  : n=  0.96826705
    31a ->  34a  : n=  0.01661877
    30a ->  35a  : n=  0.00432314
    29a ->  36a  : n=  0.00330882
    28a ->  37a  : n=  0.00249681
    27a ->  38a  : n=  0.00235099
    26a ->  39a  : n=  0.00103481


------------------------------------------
NATURAL TRANSITION ORBITALS FOR STATE    6
------------------------------------------

Making the (pseudo)densities                       ... done
Solving eigenvalue problem for the occupied space  ... done
Solving eigenvalue problem for the virtual space   ... done
Natural Transition Orbitals were saved in s1_freq_2_wat.s6.nto
Threshold for printing occupation numbers 0.001000

 E=   0.225661 au      6.141 eV    49527.0 cm**-1
    32a ->  33a  : n=  0.98422194
    31a ->  34a  : n=  0.01436892


------------------------------------------
NATURAL TRANSITION ORBITALS FOR STATE    7
------------------------------------------

Making the (pseudo)densities                       ... done
Solving eigenvalue problem for the occupied space  ... done
Solving eigenvalue problem for the virtual space   ... done
Natural Transition Orbitals were saved in s1_freq_2_wat.s7.nto
Threshold for printing occupation numbers 0.001000

 E=   0.230023 au      6.259 eV    50484.2 cm**-1
    32a ->  33a  : n=  0.98438926
    31a ->  34a  : n=  0.01368578


------------------------------------------
NATURAL TRANSITION ORBITALS FOR STATE    8
------------------------------------------

Making the (pseudo)densities                       ... done
Solving eigenvalue problem for the occupied space  ... done
Solving eigenvalue problem for the virtual space   ... done
Natural Transition Orbitals were saved in s1_freq_2_wat.s8.nto
Threshold for printing occupation numbers 0.001000

 E=   0.238675 au      6.495 eV    52383.2 cm**-1
    32a ->  33a  : n=  0.99040848
    31a ->  34a  : n=  0.00835914


------------------------------------------
NATURAL TRANSITION ORBITALS FOR STATE    9
------------------------------------------

Making the (pseudo)densities                       ... done
Solving eigenvalue problem for the occupied space  ... done
Solving eigenvalue problem for the virtual space   ... done
Natural Transition Orbitals were saved in s1_freq_2_wat.s9.nto
Threshold for printing occupation numbers 0.001000

 E=   0.257081 au      6.996 eV    56422.8 cm**-1
    32a ->  33a  : n=  0.88697461
    31a ->  34a  : n=  0.05605893
    30a ->  35a  : n=  0.03031854
    29a ->  36a  : n=  0.01249125
    28a ->  37a  : n=  0.00537500
    27a ->  38a  : n=  0.00306027
    26a ->  39a  : n=  0.00158022
    25a ->  40a  : n=  0.00118663


------------------------------------------
NATURAL TRANSITION ORBITALS FOR STATE   10
------------------------------------------

Making the (pseudo)densities                       ... done
Solving eigenvalue problem for the occupied space  ... done
Solving eigenvalue problem for the virtual space   ... done
Natural Transition Orbitals were saved in s1_freq_2_wat.s10.nto
Threshold for printing occupation numbers 0.001000

 E=   0.262796 au      7.151 eV    57677.1 cm**-1
    32a ->  33a  : n=  0.93423639
    31a ->  34a  : n=  0.05533189
    30a ->  35a  : n=  0.00652803
    29a ->  36a  : n=  0.00186558


-----------------------------
TD-DFT/TDA-EXCITATION SPECTRA
-----------------------------

Center of mass = (  0.2237, -0.3627,  0.1020)
Generating CIS transition densities           ... done

----------------------------------------------------------------------------------------------------
                     ABSORPTION SPECTRUM VIA TRANSITION ELECTRIC DIPOLE MOMENTS    
----------------------------------------------------------------------------------------------------
     Transition      Energy     Energy  Wavelength fosc(D2)      D2        DX        DY        DZ   
                      (eV)      (cm-1)    (nm)                 (au**2)    (au)      (au)      (au)  
----------------------------------------------------------------------------------------------------
  0-1A  ->  1-1A    3.053619   24629.1   406.0   0.000072693   0.00097  -0.02245  -0.02094   0.00538
  0-1A  ->  2-1A    4.011893   32358.1   309.0   0.008461399   0.08609   0.27376   0.10555   0.00158
  0-1A  ->  3-1A    4.188258   33780.6   296.0   0.000997521   0.00972   0.06285   0.07317  -0.02046
  0-1A  ->  4-1A    4.336012   34972.3   285.9   0.000217335   0.00205  -0.02358  -0.03373  -0.01877
  0-1A  ->  5-1A    5.686489   45864.6   218.0   0.042927081   0.30813  -0.09589  -0.54668  -0.00854
  0-1A  ->  6-1A    6.140561   49527.0   201.9   0.005466938   0.03634   0.08794   0.11976  -0.11943
  0-1A  ->  7-1A    6.259247   50484.2   198.1   0.009121661   0.05948   0.14634   0.19431   0.01765
  0-1A  ->  8-1A    6.494685   52383.2   190.9   0.002809055   0.01765   0.03535   0.05606   0.11516
  0-1A  ->  9-1A    6.995541   56422.8   177.2   0.130140562   0.75933   0.09986   0.86529  -0.02525
  0-1A  -> 10-1A    7.151043   57677.1   173.4   0.002114006   0.01207  -0.05760   0.05508  -0.07560

----------------------------------------------------------------------------------------------------
                     ABSORPTION SPECTRUM VIA TRANSITION VELOCITY DIPOLE MOMENTS    
----------------------------------------------------------------------------------------------------
     Transition      Energy     Energy  Wavelength fosc(P2)      P2        PX        PY        PZ   
                      (eV)      (cm-1)    (nm)                 (au**2)    (au)      (au)      (au)  
----------------------------------------------------------------------------------------------------
  0-1A  ->  1-1A    3.053619   24629.1   406.0   0.001588341   0.00027   0.00216   0.00166  -0.01612
  0-1A  ->  2-1A    4.011893   32358.1   309.0   0.002306012   0.00051  -0.02258   0.00035   0.00043
[...]
     36       0.000258  -0.004559   0.008116   0.146360  -0.001620  -0.000131
     37      -0.009381   0.046192   0.038626   0.732179   0.000609   0.000045
     38      -0.000283  -0.000005   0.001339   0.014746   0.000022  -0.000198
     39      -0.000199  -0.003331  -0.050709   0.002880   0.000200   0.000019
     40      -0.001117  -0.000303  -0.006920   0.000100   0.000055   0.000025
     41      -0.000792   0.000032  -0.044842   0.002549  -0.000041   0.000021
     42       0.006563   0.011017   0.586564  -0.032085   0.000082  -0.000220
     43       0.001785   0.012279   0.249321  -0.013677   0.000045  -0.000053
     44       0.000733   0.001460   0.020767  -0.001411  -0.000017  -0.000093
     45      -0.007935   0.032752   0.237026  -0.011391  -0.003030  -0.000027
     46       0.014934  -0.025329  -0.144905   0.007643  -0.000731  -0.000353
     47       0.012509  -0.005930   0.712810  -0.040111   0.000689  -0.000174
                 42         43         44         45         46         47    
      0      -0.004239   0.001859   0.001285  -0.000219   0.000266  -0.000205
      1      -0.000008  -0.002297  -0.000837   0.000902   0.000335  -0.000188
      2      -0.000024  -0.000009  -0.000033   0.000005   0.000001   0.000014
      3       0.001797   0.000647   0.002652  -0.002159   0.000081  -0.000106
      4       0.001224   0.003315   0.005613  -0.008202   0.000118  -0.000630
      5      -0.000002   0.000175   0.000020  -0.000050  -0.000004   0.000009
      6      -0.051719  -0.001629  -0.000827   0.000379  -0.000135   0.000076
      7      -0.076035  -0.000940   0.000680  -0.000264   0.000017   0.000026
      8      -0.001116  -0.000134   0.000043  -0.000033   0.000008  -0.000018
      9       0.161092   0.003008   0.001796  -0.000566  -0.000031   0.000040
     10       0.030268   0.001260  -0.001727   0.001140  -0.000153   0.000234
     11      -0.235907  -0.003393  -0.001077   0.000236   0.000033   0.000205
     12       0.158029   0.002861   0.001809  -0.000358  -0.000029   0.000050
     13       0.025090   0.001036  -0.001839   0.001179  -0.000167   0.000090
     14       0.238410   0.003624   0.001011   0.000009  -0.000045  -0.000069
     15       0.320529   0.006632   0.002644  -0.002639   0.000607  -0.000381
     16       0.850632   0.005626  -0.004486   0.002053  -0.000583   0.000485
     17       0.010993   0.000243   0.000017   0.000002   0.000006   0.000076
     18       0.000577  -0.000657  -0.002023   0.001241  -0.000158   0.000090
     19      -0.000149   0.001712   0.000492  -0.000229  -0.000130   0.000084
     20       0.000033  -0.000079   0.000051  -0.000025   0.000004  -0.000008
     21      -0.000315  -0.000580  -0.001252   0.001531  -0.000048   0.000145
     22      -0.000674  -0.001052  -0.001167   0.003127  -0.000132   0.000254
     23      -0.000001  -0.000023   0.000010   0.000028   0.000003  -0.000003
     24      -0.000027   0.001503   0.027073  -0.022137  -0.000543   0.000256
     25      -0.000079   0.001648   0.038598  -0.030403  -0.000498   0.000532
     26      -0.000001   0.000038   0.000573  -0.000451  -0.000014  -0.000004
     27       0.000466  -0.019986  -0.416665   0.336901   0.008384  -0.005202
     28      -0.002104  -0.039349  -0.656969   0.522941   0.007802  -0.005469
     29      -0.000042  -0.000886  -0.009802   0.007759   0.000096   0.000055
     30      -0.000066  -0.000150  -0.036801  -0.045773  -0.009438  -0.000359
     31       0.000055   0.000402   0.004617   0.004661   0.061805   0.001472
     32       0.000002   0.000043  -0.000437  -0.000573   0.000950   0.000005
     33       0.000100  -0.000818  -0.024938  -0.032236   0.050540   0.001500
     34      -0.000110  -0.003475   0.059785   0.091777  -0.991172  -0.023796
     35      -0.000002  -0.000074   0.000657   0.001153  -0.016611  -0.000392
     36       0.000704   0.004000   0.605686   0.756024   0.100068   0.004079
     37      -0.000129  -0.002815  -0.135897  -0.166204   0.009633   0.000526
     38       0.000038  -0.000046   0.006252   0.007772   0.001566   0.000053
     39       0.000718  -0.052978   0.001868  -0.001239   0.000133   0.001120
     40       0.000270  -0.026156   0.000954  -0.000585  -0.000370   0.020526
     41      -0.000079   0.008222   0.000190  -0.000040   0.001413  -0.059172
     42       0.000310  -0.024295   0.000255  -0.000501  -0.001433   0.058815
     43       0.000748  -0.040708   0.003840  -0.002292   0.007287  -0.295122
     44      -0.001074   0.087796  -0.009800   0.005439  -0.023129   0.947683
     45      -0.009958   0.857173  -0.030923   0.020734  -0.001068  -0.075983
     46      -0.003718   0.449622  -0.018066   0.011415  -0.001286  -0.030476
     47       0.001917  -0.217812   0.006226  -0.004604   0.000641  -0.008333


-----------
IR SPECTRUM
-----------

 Mode   freq       eps      Int      T**2         TX        TY        TZ
       cm**-1   L/(mol*cm) km/mol    a.u.
----------------------------------------------------------------------------
 10:     34.54   0.000452    2.28  0.004084  ( 0.033489 -0.051065  0.018828)
 11:     54.04   0.000312    1.58  0.001800  (-0.011177  0.038918  0.012660)
 12:     91.41   0.000168    0.85  0.000574  ( 0.021987  0.009256  0.002188)
 13:    161.57   0.000660    3.33  0.001274  ( 0.019608 -0.021975 -0.020163)
 14:    164.57   0.000740    3.74  0.001404  ( 0.011550 -0.011509  0.033735)
 15:    172.05   0.000519    2.62  0.000942  ( 0.015766 -0.022859  0.013076)
 16:    289.58   0.015391   77.78  0.016586  (-0.127491 -0.010457  0.014918)
 17:    362.92   0.015750   79.59  0.013543  (-0.105970  0.030058  0.037547)
 18:    379.54   0.014822   74.90  0.012186  ( 0.023031  0.097414 -0.046545)
 19:    407.07   0.002860   14.45  0.002192  (-0.031085  0.018355 -0.029819)
 20:    414.12   0.001777    8.98  0.001339  (-0.001922  0.005897  0.036068)
 21:    545.52   0.000623    3.15  0.000356  (-0.018302 -0.004409  0.001320)
 22:    563.06   0.003613   18.26  0.002003  ( 0.043191  0.008205 -0.008358)
 23:    567.62   0.024170  122.14  0.013288  (-0.000390  0.002730 -0.115240)
 24:    599.40   0.010158   51.34  0.005289  (-0.001137  0.004061 -0.072601)
 25:    667.54   0.007727   39.05  0.003612  (-0.002340  0.005870  0.059769)
 26:    679.36   0.016567   83.72  0.007610  ( 0.018519 -0.082894 -0.019888)
 27:    776.84   0.002717   13.73  0.001092  (-0.001110 -0.032975 -0.001734)
 28:    974.17   0.001048    5.29  0.000336  ( 0.004016 -0.017841  0.001091)
 29:   1005.54   0.000880    4.44  0.000273  ( 0.000622  0.001573 -0.016435)
 30:   1102.61   0.029416  148.66  0.008325  ( 0.086898 -0.027818 -0.000451)
 31:   1250.14   0.009598   48.50  0.002396  ( 0.048925  0.000286  0.001428)
 32:   1324.65   0.056918  287.64  0.013409  (-0.000778 -0.115793  0.000111)
 33:   1342.54   0.046362  234.29  0.010777  ( 0.061234 -0.083795 -0.002289)
 34:   1367.04   0.002356   11.91  0.000538  ( 0.022118 -0.006963 -0.000274)
 35:   1420.96   0.002272   11.48  0.000499  (-0.001612 -0.000102 -0.022280)
 36:   1441.65   0.002001   10.11  0.000433  (-0.020310  0.004263  0.001594)
 37:   1544.32   0.004077   20.61  0.000824  (-0.020606 -0.019959 -0.000969)
 38:   1659.27   0.015430   77.98  0.002902  ( 0.047276  0.018004  0.018518)
 39:   1689.93   0.033513  169.36  0.006189  ( 0.068711  0.038306 -0.000078)
 40:   3026.41   0.000792    4.00  0.000082  ( 0.008182 -0.003788  0.000590)
 41:   3095.68   0.000096    0.48  0.000010  (-0.000040 -0.000416  0.003077)
 42:   3152.17   0.000620    3.13  0.000061  ( 0.006367 -0.004535  0.000521)
 43:   3428.46   0.146825  741.99  0.013364  ( 0.090781  0.068760 -0.019877)
 44:   3571.45   0.012954   65.46  0.001132  ( 0.022734 -0.024785  0.000853)
 45:   3587.16   0.122015  616.61  0.010615  ( 0.096379  0.036409  0.000321)
 46:   3935.95   0.005975   30.20  0.000474  ( 0.016364 -0.014341 -0.000543)
 47:   3965.34   0.010660   53.87  0.000839  (-0.014190 -0.016701  0.018937)

* The epsilon (eps) is given for a Dirac delta lineshape.
** The dipole moment derivative (T) already includes vibrational overlap.

The first frequency considered to be a vibration is 10
The total number of vibrations considered is 38


--------------------------
THERMOCHEMISTRY AT 298.15K
--------------------------

Temperature         ...   298.15 K
Pressure            ...     1.00 atm
Total Mass          ...   124.09 AMU
Quasi RRHO          ...     True
Cut-Off Frequency   ...     1.00 cm^-1

Throughout the following assumptions are being made:
  (1) The electronic state is orbitally nondegenerate
  (2) There are no thermally accessible electronically excited states
  (3) Hindered rotations indicated by low frequency modes are not
      treated as such but are treated as vibrations and this may
      cause some error
  (4) All equations used are the standard statistical mechanics
      equations for an ideal gas
  (5) All vibrations are strictly harmonic

freq.      34.54  E(vib)   ...       0.54 
freq.      54.04  E(vib)   ...       0.52 
freq.      91.41  E(vib)   ...       0.47 
freq.     161.57  E(vib)   ...       0.39 
freq.     164.57  E(vib)   ...       0.39 
freq.     172.05  E(vib)   ...       0.38 
freq.     289.58  E(vib)   ...       0.27 
freq.     362.92  E(vib)   ...       0.22 
freq.     379.54  E(vib)   ...       0.21 
freq.     407.07  E(vib)   ...       0.19 
freq.     414.12  E(vib)   ...       0.19 
freq.     545.52  E(vib)   ...       0.12 
freq.     563.06  E(vib)   ...       0.11 
freq.     567.62  E(vib)   ...       0.11 
freq.     599.40  E(vib)   ...       0.10 
freq.     667.54  E(vib)   ...       0.08 
freq.     679.36  E(vib)   ...       0.08 
freq.     776.84  E(vib)   ...       0.05 
freq.     974.17  E(vib)   ...       0.03 
freq.    1005.54  E(vib)   ...       0.02 
freq.    1102.61  E(vib)   ...       0.02 
freq.    1250.14  E(vib)   ...       0.01 
freq.    1324.65  E(vib)   ...       0.01 
freq.    1342.54  E(vib)   ...       0.01 
freq.    1367.04  E(vib)   ...       0.01 
freq.    1420.96  E(vib)   ...       0.00 
freq.    1441.65  E(vib)   ...       0.00 
freq.    1544.32  E(vib)   ...       0.00 
freq.    1659.27  E(vib)   ...       0.00 
freq.    1689.93  E(vib)   ...       0.00 
freq.    3026.41  E(vib)   ...       0.00 
freq.    3095.68  E(vib)   ...       0.00 
freq.    3152.17  E(vib)   ...       0.00 
freq.    3428.46  E(vib)   ...       0.00 
freq.    3571.45  E(vib)   ...       0.00 
freq.    3587.16  E(vib)   ...       0.00 
freq.    3935.95  E(vib)   ...       0.00 
freq.    3965.34  E(vib)   ...       0.00 

------------
INNER ENERGY
------------

The inner energy is: U= E(el) + E(ZPE) + E(vib) + E(rot) + E(trans)
    E(el)   - is the total energy from the electronic structure calculation
              = E(kin-el) + E(nuc-el) + E(el-el) + E(nuc-nuc)
    E(ZPE)  - the the zero temperature vibrational energy from the frequency calculation
    E(vib)  - the the finite temperature correction to E(ZPE) due to population
              of excited vibrational states
    E(rot)  - is the rotational thermal energy
    E(trans)- is the translational thermal energy

Summary of contributions to the inner energy U:
Electronic energy                ...   -495.05754134 Eh
Zero point energy                ...      0.11576785 Eh      72.65 kcal/mol
Thermal vibrational correction   ...      0.00721319 Eh       4.53 kcal/mol
Thermal rotational correction    ...      0.00141627 Eh       0.89 kcal/mol
Thermal translational correction ...      0.00141627 Eh       0.89 kcal/mol
-----------------------------------------------------------------------
Total thermal energy                   -494.93172776 Eh


Summary of corrections to the electronic energy:
(perhaps to be used in another calculation)
Total thermal correction                  0.01004574 Eh       6.30 kcal/mol
Non-thermal (ZPE) correction              0.11576785 Eh      72.65 kcal/mol
-----------------------------------------------------------------------
Total correction                          0.12581358 Eh      78.95 kcal/mol


--------
ENTHALPY
--------

The enthalpy is H = U + kB*T
                kB is Boltzmann's constant
Total thermal energy              ...   -494.93172776 Eh 
Thermal Enthalpy correction       ...      0.00094421 Eh       0.59 kcal/mol
-----------------------------------------------------------------------
Total Enthalpy                    ...   -494.93078355 Eh


Note: Only C1 symmetry has been detected, increase convergence thresholds 
      if your molecule has a higher symmetry. Symmetry factor of 1.0 is   
      used for the rotational entropy correction. 
 

Note: Rotational entropy computed according to Herzberg 
Infrared and Raman Spectra, Chapter V,1, Van Nostrand Reinhold, 1945 
Point Group:  C1, Symmetry Number:   1  
Rotational constants in cm-1:     0.147036     0.023065     0.020099 

Vibrational entropy computed according to the QRRHO of S. Grimme
Chem.Eur.J. 2012 18 9955 using a reference frequency of 100.0 cm-1


-------
ENTROPY
-------

The entropy contributions are T*S = T*(S(el)+S(vib)+S(rot)+S(trans))
     S(el)   - electronic entropy
     S(vib)  - vibrational entropy
     S(rot)  - rotational entropy
     S(trans)- translational entropy
The entropies will be listed as multiplied by the temperature to get
units of energy

Electronic entropy                ...      0.00000000 Eh      0.00 kcal/mol
Vibrational entropy               ...      0.01280743 Eh      8.04 kcal/mol
Rotational entropy                ...      0.01403986 Eh      8.81 kcal/mol
Translational entropy             ...      0.01917695 Eh     12.03 kcal/mol
-----------------------------------------------------------------------
Final entropy term                ...      0.04602423 Eh     28.88 kcal/mol

In case the symmetry of your molecule has not been determined correctly
or in case you have a reason to use a different symmetry number we print 
out the resulting rotational entropy values for sn=1,12:

 non-linear molecules -----------------------------------
|  sn= 1 | S(rot)=       0.01403986 Eh      8.81 kcal/mol|
|  sn= 2 | S(rot)=       0.01338540 Eh      8.40 kcal/mol|
|  sn= 3 | S(rot)=       0.01300257 Eh      8.16 kcal/mol|
|  sn= 4 | S(rot)=       0.01273095 Eh      7.99 kcal/mol|
|  sn= 5 | S(rot)=       0.01252026 Eh      7.86 kcal/mol|
|  sn= 6 | S(rot)=       0.01234811 Eh      7.75 kcal/mol|
|  sn= 7 | S(rot)=       0.01220257 Eh      7.66 kcal/mol|
|  sn= 8 | S(rot)=       0.01207649 Eh      7.58 kcal/mol|
|  sn= 9 | S(rot)=       0.01196528 Eh      7.51 kcal/mol|
|  sn=10 | S(rot)=       0.01186580 Eh      7.45 kcal/mol|
|  sn=11 | S(rot)=       0.01177581 Eh      7.39 kcal/mol|
|  sn=12 | S(rot)=       0.01169366 Eh      7.34 kcal/mol|
 linear molecules ---------------------------------------
|  Dinfh | S(rot)=       0.00901481 Eh      5.66 kcal/mol|
|  Cinfv | S(rot)=       0.00966927 Eh      6.07 kcal/mol|
 --------------------------------------------------------


-------------------
GIBBS FREE ENERGY
-------------------

The Gibbs free energy is G = H - T*S

Total enthalpy                    ...   -494.93078355 Eh 
Total entropy correction          ...     -0.04602423 Eh    -28.88 kcal/mol
-----------------------------------------------------------------------
Final Gibbs free energy         ...   -494.97680779 Eh

For completeness - the Gibbs free energy minus the electronic energy
G-E(el)                           ...      0.08073356 Eh     50.66 kcal/mol



--------------------------------
SUGGESTED CITATIONS FOR THIS RUN
--------------------------------

Below you find a list of papers that are relevant to this ORCA run
We neither can nor want to force you to cite these papers, but we appreciate if you do
You receive ORCA, which is the product of decades of hard work by many enthusiastic individuals, for free
The only thing we kindly ask in return is that you cite our papers,
We deeply appreciate it, if you show your appreciation for ORCA by not just citing the generic ORCA reference.

Please note that relegating all ORCA citations to the supporting information does *not* help us.
SI sections are not indexed - citations you put there will not count into any citation statistics
But we need these citations in order to attract the funding resources that allow us to do what we are doing

Therefore, if you are a happy ORCA user, please consider citing a few of the papers listed below in the main body of your paper

In addition to the list printed below, the program has created the file s1_freq_2_wat.bibtex that contains the list in bibtex format
You can import this file easily into all common literature databanks and citation aid programs


List of essential papers. We consider these as the minimum necessary citations

  1. Neese, F.
     Software update: the ORCA program system, version 6.0
     WIRES Comput. Molec. Sci. 2025 15(1), e70019
     doi.org/10.1002/wcms.7019

List of papers to cite with high priority. The work reported in these papers was absolutely
necessary for this run to complete.
Our perspective: the developers of density functionals and basis sets usually get cited in chemistry papers
Good! But without the algorithms to do something with them, the functionals or basis sets would not do anything.
Hence, in our opinion, the algorithm design and method developments papers are equally worthy of getting cited

  1. Neese, F.; Olbrich, G.
     Efficient use of the resolution of the identity approximation in time-dependent density functional calculations with hybrid density functionals
     Chem. Phys. Lett. 2002 362 , 170-178
     doi.org/10.1016/s0009-2614(02)01053-9
  2. Petrenko, T.; Kossmann, S.; Neese, F.
     Efficient time-dependent density functional theory approximations for hybrid density functionals: Analytical gradients and parallelization
     J. Chem. Phys. 2011 134 , 054116
     doi.org/10.1063/1.3533441
  3. Lehtola, S.; Steigemann, C.; Oliveira, M.; Marques, M.
     Recent developments in Libxc - A comprehensive library of functionals for density functional theory
     Software X 2018 7 , 
     doi.org/10.1016/j.softx.2017.11.002
  4. Neese, F.
     The SHARK Integral Generation and Digestion System
     J. Comp. Chem. 2022 44(3), 381
     doi.org/10.1002/jcc.26942

List of suggested additional citations. These are papers that are important in the 'surrounding' of 
of this run, or papers that preceded the highly important papers. If you like your results we are grateful for a citation.

  1. Neese, F.
     The ORCA program system
     WIRES Comput. Molec. Sci. 2012 2(1), 73-78
     doi.org/10.1002/wcms.81
  2. Neese, F.
     Software update: the ORCA program system, version 4.0
     WIRES Comput. Molec. Sci. 2018 8(1), 1-6
     doi.org/10.1002/wcms.1327
  3. Neese, F.; Wennmohs, F.; Becker, U.; Riplinger, C.
     The ORCA quantum chemistry program package
     J. Chem. Phys. 2020 152(22), 224108
     doi.org/10.1063/5.0004608
  4. Neese, F.
     Software update: The ORCA program system—Version 5.0
     WIRES Comput. Molec. Sci. 2022 12(1), e1606
     doi.org/10.1002/wcms.1606

List of optional additional citations

  1. Neese, F.
     Approximate second-order SCF convergence for spin unrestricted wavefunctions
     Chem. Phys. Lett. 2000 325(1-3), 93-98
     doi.org/10.1016/s0009-2614(00)00662-x

Timings for individual modules:

Sum of individual times          ...    75366.388 sec (=1256.106 min)
Startup calculation              ...        7.618 sec (=   0.127 min)   0.0 %
SCF iterations                   ...      243.825 sec (=   4.064 min)   0.3 %
Property integrals               ...        2.834 sec (=   0.047 min)   0.0 %
Property calculations            ...        1.462 sec (=   0.024 min)   0.0 %
CIS module                       ...     1775.034 sec (=  29.584 min)   2.4 %
Numerical frequency calculation  ...    73335.614 sec (=1222.260 min)  97.3 %
                             ****ORCA TERMINATED NORMALLY****
TOTAL RUN TIME: 0 days 20 hours 39 minutes 27 seconds 863 msec
