
                                 *****************
                                 * O   R   C   A *
                                 *****************

                                            #,                                       
                                            ###                                      
                                            ####                                     
                                            #####                                    
                                            ######                                   
                                           ########,                                 
                                     ,,################,,,,,                         
                               ,,#################################,,                 
                          ,,##########################################,,             
                       ,#########################################, ''#####,          
                    ,#############################################,,   '####,        
                  ,##################################################,,,,####,       
                ,###########''''           ''''###############################       
              ,#####''   ,,,,##########,,,,          '''####'''          '####       
            ,##' ,,,,###########################,,,                        '##       
           ' ,,###''''                  '''############,,,                           
         ,,##''                                '''############,,,,        ,,,,,,###''
      ,#''                                            '''#######################'''  
     '                                                          ''''####''''         
             ,#######,   #######,   ,#######,      ##                                
            ,#'     '#,  ##    ##  ,#'     '#,    #''#        ,####,    ,#,          
            ##       ##  ##   ,#'  ##            #'  '#       #'       ,# #          
            ##       ##  #######   ##           ,######,      #####,      #          
            '#,     ,#'  ##    ##  '#,     ,#' ,#      #,     #,   #      #          
             '#######'   ##     ##  '#######'  #'      '#     '####' #    #          



                #########################################################
                #                        -***-                          #
                #          Department of theory and spectroscopy        #
                #                                                       #
                #                      Frank Neese                      #
                #                                                       #
                #     Directorship, Architecture, Infrastructure        #
                #                    SHARK, DRIVERS                     #
                #        Core code/Algorithms in most modules           #
                #                                                       #
                #        Max Planck Institute fuer Kohlenforschung      #
                #                Kaiser Wilhelm Platz 1                 #
                #                 D-45470 Muelheim/Ruhr                 #
                #                      Germany                          #
                #                                                       #
                #                  All rights reserved                  #
                #                        -***-                          #
                #########################################################


                         Program Version 6.1.0  -  RELEASE   -
                                (GIT: $679e74b$)
                          ($2025-06-10 18:02:51 +0200$)


 With contributions from (in alphabetic order):
[Max-Planck-Institut fuer Kohlenforschung]                               
  Daniel Aravena         : Magnetic Suceptibility                        
  Michael Atanasov       : Ab Initio Ligand Field Theory (pilot matlab implementation)
  Alexander A. Auer      : GIAO ZORA, VPT2 properties, NMR spectrum      
  Ute Becker             : All parallelization in ORCA, NUMFREQ, NUMCALC 
  Giovanni Bistoni       : ED, misc. LED, open-shell LED, HFLD           
  Dmytro Bykov           : pre 5.0 version of the SCF Hessian            
  Marcos Casanova-Páez   : Triplet and SCS-CIS(D). UHF-(DLPNO)-IP/EA/STEOM-CCSD. UHF-CVS-IP/STEOM-CCSD   
  Vijay G. Chilkuri      : MRCI spin determinant printing, contributions to CSF-ICE 
  Pauline Colinet        : FMM embedding                                 
  Dipayan Datta          : RHF DLPNO-CCSD density                        
  Achintya Kumar Dutta   : EOM-CC, STEOM-CC                              
  Nicolas Foglia         : Exact transition moments, OPA infrastructure, MCD improvements    
  Dmitry Ganyushin       : Spin-Orbit,Spin-Spin,Magnetic field MRCI      
  Miquel Garcia-Rates    : C-PCM and meta-GGA Hessian, CCSD/C-PCM, Gaussian charge scheme 
  Tiago L. C. Gouveia    : GS-ROHF, GS-ROCIS                             
  Yang Guo               : DLPNO-NEVPT2, F12-NEVPT2, CIM, IAO-localization        
  Andreas Hansen         : Spin unrestricted coupled pair/coupled cluster methods 
  Ingolf Harden          : AUTO-CI MPn and infrastructure                
  Benjamin Helmich-Paris : MC-RPA, TRAH-(SCF,CASSCF), AVAS, COSX integrals, SCF dyn. polar., MC-PDFT, srDFT 
  Lee Huntington         : MR-EOM, pCC                                   
  Robert Izsak           : Overlap fitted RIJCOSX, COSX-SCS-MP3, EOM     
  Riya Kayal             : Wick's Theorem for AUTO-CI, AUTO-CI UHF-CCSDT 
  Emily Kempfer          : AUTO-CI RHF CISDT and CCSDT, approximate NEVPT4
  Christian Kollmar      : KDIIS, OOCD, Brueckner-CCSD(T), CCSD density, CASPT2, CASPT2-K, improved NEVPT2 
  Axel Koslowski         : Symmetry handling                             
  Simone Kossmann        : meta-GGA functionals, TD-DFT gradient, OOMP2, (MP2 Hessian; deprecated post 5.0) 
  Lucas Lang             : DCDCAS, Hyperfine gauge corrections, ICE-SOC+SSC
  Marvin Lechner         : AUTO-CI (C++ implementation), FIC-MRCC        
  Spencer Leger          : CASSCF response                               
  Dagmar Lenk            : GEPOL surface, SMD, ORCA-2-JSON               
  Dimitrios Liakos       : Extrapolation schemes; Compound Job, Property file
  Dimitrios Manganas     : Further ROCIS development; embedding schemes. LFT, Crystal Embedding 
  Dimitrios Pantazis     : SARC Basis sets                               
  Anastasios Papadopoulos: AUTO-CI, single reference methods and gradients 
  Taras Petrenko         : pre 6.0 DFT Hessian and TD-DFT gradient,  ECA, NRVS 
  Petra Pikulova         : Analytic Raman intensities                    
  Peter Pinski           : DLPNO-MP2, DLPNO-MP2 Gradient                 
  Shashank Vittal Rao    : ES-AILFT, MagRelax                            
  Christoph Reimann      : Effective Core Potentials                     
  Marius Retegan         : Local ZFS, SOC                                
  Christoph Riplinger    : Optimizer, TS searches, QM/MM, DLPNO-CCSD(T), (RO)-DLPNO pert. Triples 
  Michael Roemelt        : Original ROCIS implementation, recursive CI coupling coefficients
  Masaaki Saitow         : Open-shell DLPNO-CCSD energy and density      
  Barbara Sandhoefer     : DKH picture change effects                    
  Yorick L. A. Schmerwitz: GMF and freeze-and-release deltaSCF, NEB S-IDPP initial path                    
  Kantharuban Sivalingam : CASSCF convergence/infrastructure, NEVPT2, NEVPT3, NEVPT4(SD), FIC-MRCI and CEPA variants
  Bernardo de Souza      : ESD, SOC TD-DFT                               
  Georgi L. Stoychev     : AutoAux, RI-MP2 NMR, DLPNO-MP2 response, X2C  
  Van Anh Tran           : RI-MP2 g-tensors                              
  Willem Van den Heuvel  : Paramagnetic NMR                              
  Zikuan Wang            : NOTCH, Electric field optimization            
  Frank Wennmohs         : Technical directorship and infrastructure     
  Hang Xu                : AUTO-CI-Response properties                   
                                                                         
[FACCTs GmbH]                                                            
  Markus Bursch, Nicolas Foglia, Miquel Garcia-Rates, Ingolf Harden, Hagen Neugebauer, Anastasios Papadopoulos, 
  Christoph Riplinger, Bernardo de Souza, Georgi L. Stoychev                                                    
                                                                 
  APM, various basis sets, CI-OPT, improved COSX, DLPNO-Multilevel,           
  DOCKER, DRACO, updates on ESD, Fragmentator, GOAT, IRC, LR-CPCM, L-BFGS, MBIS, meta-GGA TD-DFT gradient, ML-optimized integration grids, 
  MM, NACMEs, nearIR, NEB, NEB-TS, NL-DFT gradient (VV10), 2- and 3-layer-ONIOM, interface openCOSMO-RS, QMMM,   
  Crystal-QMMM, RESP, rigid body optimization, SF, symmetry and pop. for TD-DFT, various functionals, SOLVATOR                                   
                                                                         
[Other institutions]                                                     
  V. Asgeirsson          : NEB                                           
  Christoph Bannwarth    : sTDA-DFT, sTD-DFT, PBEh-3c, B97-3c, D3        
  Giovanni Bistoni       : ETS/NOCV, ADLD/ADEX, COVALED                  
  Martin Brehm           : Molecular dynamics                            
  Ronald Cardenas        : ETS/NOCV                                      
  Martina Colucci        : COVALED                                       
  Sebastian Ehlert       : rSCAN, r2SCAN, r2SCAN-3c, D4, dhf basis sets  
  Marvin Friede          : D4 for Fr, Ra, Ac-Lr                          
  Lars Goerigk           : TD-DFT with DH, B97 family of functionals     
  Stefan Grimme          : VdW corrections, initial TS optimization, DFT functionals, gCP, sTDA/sTD-DF 
  Waldemar Hujo          : DFT-NL                                        
  H. Jonsson             : NEB                                           
  Holger Kruse           : gCP                                           
  Marcel Mueller         : wB97X-3c, vDZP basis set                      
  Hagen Neugebauer       : wr2SCAN, Native XTB                           
  Gianluca Regni         : ADLD/ADEX                                     
  Tobias Risthaus        : pre 6.0 range-separated hybrid DFT and stability analysis
  Lukas Wittmann         : regularized MP2, r2SCAN double-hybrids, wr2SCAN        
                                                                         
We gratefully acknowledge several colleagues who have allowed us to      
interface, adapt or use parts of their codes:                            
  Ed Valeev, F. Pavosevic, A. Kumar             : LibInt (2-el integral package), F12 methods 
  Garnet Chan, S. Sharma, J. Yang, R. Olivares  : DMRG                   
  Ulf Ekstrom                                   : XCFun DFT Library      
  Mihaly Kallay                                 : mrcc  (arbitrary order and MRCC methods)
  Frank Weinhold                                : gennbo (NPA and NBO analysis)           
  Simon Mueller                                 : openCOSMO-RS                            
  Christopher J. Cramer and Donald G. Truhlar   : smd solvation model                     
  S Lehtola, MJT Oliveira, MAL Marques          : LibXC Library                           
  Liviu Ungur et al                             : ANISO software                          


 Your calculation uses the libint2 library for the computation of 2-el integrals
 For citations please refer to: http://libint.valeyev.net

 Your ORCA version has been built with support for libXC version: 7.0.0
 For citations please refer to: https://libxc.gitlab.io

 This ORCA versions uses:
   CBLAS   interface :  Fast vector & matrix operations
   LAPACKE interface :  Fast linear algebra routines
   SCALAPACK package :  Parallel linear algebra routines
   Shared memory     :  Shared parallel matrices
   BLAS/LAPACK       :  OpenBLAS 0.3.29  USE64BITINT DYNAMIC_ARCH NO_AFFINITY SkylakeX SINGLE_THREADED
        Core in use  :  SkylakeX
   Copyright (c) 2011-2014, The OpenBLAS Project


  ***********************************
  * Starting time: Wed Jan 28 11:55:46 2026
  * Host name:     bp1-compute174.data.bp.acrc.priv
  * Process ID:    947767
  * Working dir.:  /user/work/kp22738/Diss/Orca/pyruvic_anion/dyson_orbitals/2_wat/15365116_t1_freq_2_wat
  ***********************************

NOTE: MaxCore=8000 MB was set to SCF,MP2,MDCI,CIPSI,MRCI,RASCI and CIS
      => If you want to overwrite this, your respective input block should be placed after the MaxCore statement
Using LibXC functional ID 471 : wB97X-D range-separated functional
[ 1]  J.-D. Chai and M. Head-Gordon.,  Phys. Chem. Chem. Phys. 10, 6615-6620 (2008)
Using LibXC functional ID 471 : wB97X-D range-separated functional
[ 1]  J.-D. Chai and M. Head-Gordon.,  Phys. Chem. Chem. Phys. 10, 6615-6620 (2008)
Your calculation utilizes LibXC
by S. Lehtola, C. Steigemann, M. J. T. Oliveira & M. A. L. Marques
Please cite in your paper:
Lehtola, S.; Steigemann, C.; Oliveira, M.J.T.; Marques, M. A. L. Software X, 7, (2018), 1.
   

================================================================================

----- Orbital basis set information -----
Your calculation utilizes the basis: aug-cc-pVDZ 
    H, B-Ne : Obtained from the ccRepo (grant-hill.group.shef.ac.uk/ccrepo) Feb. 2017
              R. A. Kendall, T. H. Dunning, Jr., R. J. Harrison, J. Chem. Phys. 96, 6796 (1992)
         He : Obtained from the ccRepo (grant-hill.group.shef.ac.uk/ccrepo) Feb. 2017
              D. E. Woon, T. H. Dunning, Jr., J. Chem. Phys. 100, 2975 (1994)
  Li-Be, Na : Obtained from the ccRepo (grant-hill.group.shef.ac.uk/ccrepo) Feb. 2017
              B. P. Prascher, D. E. Woon, K. A. Peterson, T. H. Dunning, Jr., A. K. Wilson, Theor. Chem. Acc. 128, 69 (2011)
         Mg : Obtained from the Peterson Research Group Website (tyr0.chem.wsu.edu/~kipeters) Feb. 2017
              B. P. Prascher, D. E. Woon, K. A. Peterson, T. H. Dunning, Jr., A. K. Wilson, Theor. Chem. Acc. 128, 69 (2011)
      Al-Ar : Obtained from the ccRepo (grant-hill.group.shef.ac.uk/ccrepo) Feb. 2017
              D. E. Woon, T. H. Dunning, Jr., J. Chem. Phys. 98, 1358 (1993)
      Sc-Zn : Obtained from the ccRepo (grant-hill.group.shef.ac.uk/ccrepo) Feb. 2017
              N. B. Balabanov, K. A. Peterson, J. Chem. Phys. 123, 064107 (2005)
              N. B. Balabanov, K. A. Peterson, J. Chem. Phys. 125, 074110 (2006)
      Ga-Kr : Obtained from the ccRepo (grant-hill.group.shef.ac.uk/ccrepo) Feb. 2017
              A. K. Wilson, D. E. Woon, K. A. Peterson, T. H. Dunning, Jr., J. Chem. Phys. 110, 7667 (1999)

================================================================================
                                        WARNINGS
                       Please study these warnings very carefully!
================================================================================


WARNING: your system is open-shell and RHF/RKS was chosen
  ===> : WILL SWITCH to UHF/UKS


================================================================================
                                       INPUT FILE
================================================================================
NAME = t1_freq_2_wat.inp
|  1> ! aug-cc-pVDZ TightSCF DEFGRID3 Engrad ANFREQ
|  2> 
|  3> %PAL NPROCS 8 END
|  4> 
|  5> %maxcore 8000
|  6> 
|  7> %method
|  8> method dft
|  9> functional hyb_gga_xc_wb97x_d
| 10> end
| 11> 
| 12> * xyz 0 3
| 13>   C     -0.654789   -0.185921   -0.002844
| 14>   C      0.709878    0.264773    0.002326
| 15>   C     -1.785838    0.801672    0.002026
| 16>   H     -2.431910    0.645440    0.880861
| 17>   H     -2.420729    0.664561   -0.888077
| 18>   H     -1.398583    1.826979    0.015246
| 19>   O     -0.869959   -1.461628   -0.014994
| 20>   O      1.127848    1.437660    0.015865
| 21>   O      1.605790   -0.771938   -0.008399
| 22>   H      1.014909   -1.552422   -0.019915
| 23>   O      3.904848    1.364058    0.046850
| 24>   H      3.921005    0.403334    0.030279
| 25>   H      2.937417    1.529562    0.036214
| 26>   O     -3.297429   -2.619971    0.291398
| 27>   H     -3.216720   -2.894342    1.206550
| 28>   H     -2.430142   -2.177490    0.113337
| 29> * 
| 30> 
| 31>                          ****END OF INPUT****
================================================================================

                     *******************************
                     * Energy+Gradient Calculation *
                     *******************************

---------------------------------
CARTESIAN COORDINATES (ANGSTROEM)
---------------------------------
  C     -0.654789   -0.185921   -0.002844
  C      0.709878    0.264773    0.002326
  C     -1.785838    0.801672    0.002026
  H     -2.431910    0.645440    0.880861
  H     -2.420729    0.664561   -0.888077
  H     -1.398583    1.826979    0.015246
  O     -0.869959   -1.461628   -0.014994
  O      1.127848    1.437660    0.015865
  O      1.605790   -0.771938   -0.008399
  H      1.014909   -1.552422   -0.019915
  O      3.904848    1.364058    0.046850
  H      3.921005    0.403334    0.030279
  H      2.937417    1.529562    0.036214
  O     -3.297429   -2.619971    0.291398
  H     -3.216720   -2.894342    1.206550
  H     -2.430142   -2.177490    0.113337

----------------------------
CARTESIAN COORDINATES (A.U.)
----------------------------
  NO LB      ZA    FRAG     MASS         X           Y           Z
   0 C     6.0000    0    12.011   -1.237372   -0.351340   -0.005374
   1 C     6.0000    0    12.011    1.341475    0.500348    0.004396
   2 C     6.0000    0    12.011   -3.374745    1.514941    0.003829
   3 H     1.0000    0     1.008   -4.595644    1.219705    1.664586
   4 H     1.0000    0     1.008   -4.574515    1.255838   -1.678222
   5 H     1.0000    0     1.008   -2.642939    3.452490    0.028811
   6 O     8.0000    0    15.999   -1.643984   -2.762077   -0.028335
   7 O     8.0000    0    15.999    2.131324    2.716784    0.029981
   8 O     8.0000    0    15.999    3.034503   -1.458751   -0.015872
   9 H     1.0000    0     1.008    1.917900   -2.933652   -0.037634
  10 O     8.0000    0    15.999    7.379093    2.577696    0.088534
  11 H     1.0000    0     1.008    7.409626    0.762191    0.057219
  12 H     1.0000    0     1.008    5.550914    2.890453    0.068435
  13 O     8.0000    0    15.999   -6.231238   -4.951028    0.550662
  14 H     1.0000    0     1.008   -6.078720   -5.469514    2.280049
  15 H     1.0000    0     1.008   -4.592303   -4.114860    0.214176

--------------------------------
INTERNAL COORDINATES (ANGSTROEM)
--------------------------------
 C      0   0   0     0.000000000000     0.00000000     0.00000000
 C      1   0   0     1.437173556473     0.00000000     0.00000000
 C      1   2   0     1.501544368625   120.59619688     0.00000000
 H      3   1   2     1.101893109259   110.54780233   238.62045386
 H      3   1   2     1.101893533337   110.45990442   120.64909578
 H      3   1   2     1.096081952992   110.43568599   359.68109296
 O      1   2   3     1.293782864800   117.85075955   179.83810079
 O      2   1   3     1.245209275660   127.89023674     0.29123319
 O      2   1   3     1.370234664169   112.55422657   180.23345231
 H      9   2   1     0.978993487554   102.04275993     0.18404395
 O      8   2   1     2.778148002650   108.10085185   179.30765551
 H     11   8   2     0.961002731976    92.47014943     0.57001846
 H     11   8   2     0.981543396021     8.18924455   179.63525502
 O      7   1   2     2.707073173044   124.74931678   171.75617655
 H     14   7   1     0.958799547051    98.91642801   257.84925167
 H     14   7   1     0.989788813561     4.14730856    74.03584552

---------------------------
INTERNAL COORDINATES (A.U.)
---------------------------
 C      0   0   0     0.000000000000     0.00000000     0.00000000
 C      1   0   0     2.715864428647     0.00000000     0.00000000
 C      1   2   0     2.837507634633   120.59619688     0.00000000
 H      3   1   2     2.082276205355   110.54780233   238.62045386
 H      3   1   2     2.082277006747   110.45990442   120.64909578
 H      3   1   2     2.071294711488   110.43568599   359.68109296
 O      1   2   3     2.444895291231   117.85075955   179.83810079
 O      2   1   3     2.353104510416   127.89023674     0.29123319
 O      2   1   3     2.589368254485   112.55422657   180.23345231
 H      9   2   1     1.850029578369   102.04275993     0.18404395
 O      8   2   1     5.249938884509   108.10085185   179.30765551
 H     11   8   2     1.816031977385    92.47014943     0.57001846
 H     11   8   2     1.854848207039     8.18924455   179.63525502
 O      7   1   2     5.115626921538   124.74931678   171.75617655
 H     14   7   1     1.811868561255    98.91642801   257.84925167
 H     14   7   1     1.870429788050     4.14730856    74.03584552

---------------------
BASIS SET INFORMATION
---------------------
There are 3 groups of distinct atoms

 Group   1 Type C   : 18s5p2d contracted to 4s3p2d pattern {8811/311/11}
 Group   2 Type H   : 5s2p contracted to 3s2p pattern {311/11}
 Group   3 Type O   : 18s5p2d contracted to 4s3p2d pattern {8811/311/11}

Atom   0C    basis set group =>   1
Atom   1C    basis set group =>   1
Atom   2C    basis set group =>   1
Atom   3H    basis set group =>   2
Atom   4H    basis set group =>   2
Atom   5H    basis set group =>   2
Atom   6O    basis set group =>   3
Atom   7O    basis set group =>   3
Atom   8O    basis set group =>   3
Atom   9H    basis set group =>   2
Atom  10O    basis set group =>   3
Atom  11H    basis set group =>   2
Atom  12H    basis set group =>   2
Atom  13O    basis set group =>   3
Atom  14H    basis set group =>   2
Atom  15H    basis set group =>   2


           ************************************************************
           *        Program running with 8 parallel MPI-processes     *
           *              working on a common directory               *
           ************************************************************
------------------------------------------------------------------------------
                             ORCA STARTUP CALCULATIONS
------------------------------------------------------------------------------
------------------------------------------------------------------------------
                   ___                                                        
                  /   \      - P O W E R E D   B Y -                         
                 /     \                                                     
                 |  |  |   _    _      __       _____    __    __             
                 |  |  |  | |  | |    /  \     |  _  \  |  |  /  |          
                  \  \/   | |  | |   /    \    | | | |  |  | /  /          
                 / \  \   | |__| |  /  /\  \   | |_| |  |  |/  /          
                |  |  |   |  __  | /  /__\  \  |    /   |      \           
                |  |  |   | |  | | |   __   |  |    \   |  |\   \          
                \     /   | |  | | |  |  |  |  | |\  \  |  | \   \       
                 \___/    |_|  |_| |__|  |__|  |_| \__\ |__|  \__/        
                                                                              
                      - O R C A' S   B I G   F R I E N D -                    
                                      &                                       
                       - I N T E G R A L  F E E D E R -                       
                                                                              
 v1 FN, 2020, v2 2021, v3 2022-2024                                           
------------------------------------------------------------------------------


----------------------
SHARK INTEGRAL PACKAGE
----------------------

Number of atoms                             ...     16
Number of basis functions                   ...    304
Number of shells                            ...    160
Maximum angular momentum                    ...      2
Integral batch strategy                     ... SHARK/LIBINT Hybrid
RI-J (if used) integral strategy            ... SPLIT-RIJ (Revised 2003 algorithm where possible)
Printlevel                                  ...      1
Contraction scheme used                     ... PARTIAL GENERAL contraction
Prescreening option                         ... SCHWARTZ
   Thresh                                   ... 2.500e-11
   Tcut                                     ... 2.500e-12
   Tpresel                                  ... 2.500e-12 
Coulomb Range Separation                    ... NOT USED
Exchange Range Separation                   ... Long Range
   Mu parameter                             ... 2.000e-01
   Scaling (regular/separated)              ... 2.220e-01 7.780e-01
Robust (split-)RI terms used:
  metric    (central integrals)             ... YES
  density   (r.h.s.  integrals)             ... YES
  potential (l.h.s.  integrals)             ... YES
Multipole approximations                    ... NOT USED
Finite Nucleus Model                        ... NOT USED
CABS basis                                  ... NOT available
Auxiliary Coulomb fitting basis             ... NOT available
Auxiliary J/K fitting basis                 ... NOT available
Auxiliary Correlation fitting basis         ... NOT available
Auxiliary 'external' fitting basis          ... NOT available

Checking pre-screening integrals            ... done (  0.0 sec) Dimension = 160
Save PGC pre-screening integrals            ... done (  0.0 sec) Dimension = 160
Calculate PGC overlap integrals             ... done (  0.0 sec) Dimension = 112
Calculating pre-screening integrals (ORCA)  ... done (  0.1 sec) Dimension = 112
Shell pair information
Shell pair cut-off parameter TPreSel        ...   2.5e-12
Total number of shell pairs                 ...     12880
Shell pairs after pre-screening             ...     10089
Total number of primitive shell pairs       ...     18576
Primitive shell pairs kept                  ...     13235
          la=0 lb=0:   3644 shell pairs
          la=1 lb=0:   3572 shell pairs
          la=1 lb=1:    781 shell pairs
          la=2 lb=0:   1368 shell pairs
          la=2 lb=1:    598 shell pairs
          la=2 lb=2:    126 shell pairs

Checking whether 4 symmetric matrices of dimension 304 fit in memory
:Max Core in MB      =   8000.00
 MB in use           =     12.29
 MB left             =   7987.71
 MB needed           =      1.41
 Data fit in memory  = YES
Calculating Nuclear repulsion               ... done (  0.0 sec) ENN=    378.456814164708 Eh

Diagonalization of the overlap matrix:
Smallest eigenvalue                        ... 1.345e-05
Time for diagonalization                   ...    0.010 sec
Threshold for overlap eigenvalues          ... 1.000e-07
Number of eigenvalues below threshold      ... 0
Time for construction of square roots      ...    0.006 sec
Total time needed                          ...    0.017 sec

-------------------
DFT GRID GENERATION
-------------------

General Integration Accuracy     IntAcc      ... 4.959
Radial Grid Type                 RadialGrid  ... OptM3 with GC (2021)
Angular Grid (max. ang.)         AngularGrid ... 6 (Lebedev-590)
Angular grid pruning method      GridPruning ... 4 (adaptive)
Weight generation scheme         WeightScheme... mBecke (2022)
Basis function cutoff            BFCut       ... 1.0000e-11
Integration weight cutoff        WCut        ... 1.0000e-14
Partially contracted basis set               ... off
Rotationally invariant grid construction     ... off
Angular grids for H and He will be reduced by one unit
Diffuse basis detected: some atoms will have their outermost
                        angular grid increased by 1.

Total number of grid points                  ...   196742
Total number of batches                      ...     3083
Average number of points per batch           ...       63
Average number of grid points per atom       ...    12296

---------------------
SHARK GRID GENERATION
---------------------

General Integration Accuracy     IntAcc      ... 4.959
Radial Grid Type                 RadialGrid  ... OptM3 with GC (2021)
Angular Grid (max. ang.)         AngularGrid ... 6 (Lebedev-590)
Angular grid pruning method      GridPruning ... 4 (adaptive)
Weight generation scheme         WeightScheme... mBecke (2022)
Basis function cutoff            BFCut       ... 1.0000e-11
Integration weight cutoff        WCut        ... 1.0000e-14
Partially contracted basis set               ... off
Rotationally invariant grid construction     ... off
Angular grids for H and He will be reduced by one unit
Diffuse basis detected: some atoms will have their outermost
                        angular grid increased by 1.
Steep s-basis detected: some atoms will have their radial
                        grid points doubled.

Total number of grid points                  ...   315616
Total number of batches                      ...     4939
Average number of points per batch           ...       63
Average number of grid points per atom       ...    19726
Grids setup in   9.9 sec
Initializing property integral containers    ... done (  0.0 sec)

SHARK setup successfully completed in  10.3 seconds

Maximum memory used throughout the entire STARTUP-calculation: 72.9 MB


           ************************************************************
           *        Program running with 8 parallel MPI-processes     *
           *              working on a common directory               *
           ************************************************************
-------------------------------------------------------------------------------
                                 ORCA GUESS
                   Start orbitals & Density for SCF / CASSCF
-------------------------------------------------------------------------------

------------
SCF SETTINGS
------------
Hamiltonian:
 Density Functional     Method          .... DFT(GTOs)
  Functional kind                       .... Exchange-Correlation
  Functional name                       .... wB97X-D range-separated functional
  Functional family                     .... Hybrid GGA
  Functional refs                              
    [ 0] J.-D. Chai and M. Head-Gordon.,  Phys. Chem. Chem. Phys. 10, 6615-6620 (2008), doi: 10.1039/B810189B
  Fraction of HF Exchange (short range) .... 0.2220
  Fraction of HF Exchange ( int64 range )  .... 1.0000
  Range separation parameter mu         .... 0.2000
  Functional external parameters        .... 18
    Parameter  0 _cx0       =  7.779640e-01 : u^0 coefficient for exchange
    Parameter  1 _cx1       =  6.611600e-01 : u^1 coefficient for exchange
    Parameter  2 _cx2       =  5.745410e-01 : u^2 coefficient for exchange
    Parameter  3 _cx3       = -5.256710e+00 : u^3 coefficient for exchange
    Parameter  4 _cx4       =  1.163860e+01 : u^4 coefficient for exchange
    Parameter  5 _css0      =  1.000000e+00 : u^0 coefficient for same-spin correlation
    Parameter  6 _css1      = -6.905390e+00 : u^1 coefficient for same-spin correlation
    Parameter  7 _css2      =  3.133430e+01 : u^2 coefficient for same-spin correlation
    Parameter  8 _css3      = -5.105330e+01 : u^3 coefficient for same-spin correlation
    Parameter  9 _css4      =  2.644230e+01 : u^4 coefficient for same-spin correlation
    Parameter 10 _cos0      =  1.000000e+00 : u^0 coefficient for opposite-spin correlation
    Parameter 11 _cos1      =  1.794130e+00 : u^1 coefficient for opposite-spin correlation
    Parameter 12 _cos2      = -1.204770e+01 : u^2 coefficient for opposite-spin correlation
    Parameter 13 _cos3      =  1.408470e+01 : u^3 coefficient for opposite-spin correlation
    Parameter 14 _cos4      = -8.508090e+00 : u^4 coefficient for opposite-spin correlation
    Parameter 15 _alpha     =  1.000000e+00 : fraction of HF exchange
    Parameter 16 _beta      = -7.779640e-01 : fraction of short-range exchange
    Parameter 17 _omega     =  2.000000e-01 : range-separation constant
 Long-range corrected/Screened/Range-Separated Hybrid DFT is turned on
   Amount of maximum screened exact exchange              ....  0.777964
   Range separation parameter mu (erf(mu*r12)/r12)        ....  0.200000


General Settings:
 Integral files         IntName         .... t1_freq_2_wat
 Hartree-Fock type      HFTyp           .... UHF
 Total Charge           Charge          ....    0
 Multiplicity           Mult            ....    3
 Number of Electrons    NEL             ....   66
 Basis Dimension        Dim             ....  256
 Nuclear Repulsion      ENuc            ....    378.4568141647 Eh

Convergence Acceleration:
 AO-DIIS                CNVDIIS         .... on
   Start iteration      DIISMaxIt       ....    12
   Startup error        DIISStart       ....  0.200000
   # of expansion vecs  DIISMaxEq       ....     5
   Bias factor          DIISBfac        ....   1.050
   Max. coefficient     DIISMaxC        ....  10.000
 MO-DIIS                CNVKDIIS        .... off
 Trust-Rad. Augm. Hess. CNVTRAH         .... auto
   Auto Start mean grad. ratio tolernc. ....  1.125000
   Auto Start start iteration           ....    50
   Auto Start num. interpolation iter.  ....    10
   Max. Number of Micro iterations      ....    24
   Max. Number of Macro iterations      .... Maxiter - #DIIS iter
   Number of Davidson start vectors     ....     2
   Converg. threshold    (grad. norm)   ....   1.000e-05
   Grad. Scal. Fac. for Micro threshold ....   0.100
   Minimum threshold for Micro iter.    ....   1.000e-02
   NR start threshold (gradient norm)   ....   1.000e-04
   Initial trust radius                 ....   0.400
   Minimum AH scaling param. (alpha)    ....   1.000
   Maximum AH scaling param. (alpha)    .... 1000.000
   Quad. conv. algorithm                .... NR
   White noise on init. David. guess    .... on
   Maximum white noise                  ....   0.010
   Pseudo random numbers                .... off
   Inactive MOs                         .... canonical
   Orbital update algorithm             .... Taylor
   Preconditioner                       .... Diag
   Full preconditioner red. dimension   ....   250
 SOSCF                 CNVSOSCF           .... on
   Start iteration     SOSCFMaxIt         ....   150
   Startup grad/error  SOSCFStart         ....  0.003300
   Hessian update      SOSCFHessUp        .... L-BFGS
   Autom. constraints  SOSCFAutoConstrain .... off
 Level Shifting         CNVShift        .... on
   Level shift para.    LevelShift      ....    0.2500
   Turn off err/grad.   ShiftErr        ....    0.0010
 Zerner damping         CNVZerner       .... off
 Static damping         CNVDamp         .... on
   Fraction old density DampFac         ....    0.7000
   Max. Damping (<1)    DampMax         ....    0.9800
   Min. Damping (>=0)   DampMin         ....    0.0000
   Turn off err/grad.   DampErr         ....    0.1000

SCF Procedure:
 Maximum # iterations   MaxIter         ....   125
 SCF integral mode      SCFMode         .... Direct
   Integral package                     .... SHARK and LIBINT hybrid scheme
 Reset frequency        DirectResetFreq ....    20
 Integral Threshold     Thresh          ....  2.500e-11 Eh
 Primitive CutOff       TCut            ....  2.500e-12 Eh

Convergence Tolerance:
 Convergence Check Mode ConvCheckMode   .... Total+1el-Energy
 Convergence forced     ConvForced      .... 0
 Energy Change          TolE            ....  1.000e-08 Eh
 1-El. energy change                    ....  1.000e-05 Eh
 Orbital Gradient       TolG            ....  1.000e-05
 Orbital Rotation angle TolX            ....  1.000e-05
 DIIS Error             TolErr          ....  5.000e-07

------------------------------
INITIAL GUESS: MODEL POTENTIAL
------------------------------
Loading Hartree-Fock densities                     ... done
Calculating cut-offs                               ... done
Initializing the effective Hamiltonian             ... done
Setting up the integral package (SHARK)            ... done
Starting the Coulomb interaction                   ... done (   0.1 sec)
Making the grid                                    ... done (   0.2 sec)
Mapping shells                                     ... done
Starting the XC term evaluation                    ... done (   0.2 sec)
  promolecular density results
     # of electrons  =     65.994447606
     EX+EC           =    -42.402848093
Transforming the Hamiltonian                       ... done (   0.0 sec)
Diagonalizing the Hamiltonian                      ... done (   0.0 sec)
Back transforming the eigenvectors                 ... done (   0.0 sec)
Now organizing SCF variables                       ... done
                      ------------------
                      INITIAL GUESS DONE (   0.6 sec)
                      ------------------
             **** ENERGY FILE WAS UPDATED (t1_freq_2_wat.en.tmp) ****
Finished Guess after   1.0 sec
Maximum memory used throughout the entire GUESS-calculation: 15.9 MB


           ************************************************************
           *        Program running with 8 parallel MPI-processes     *
           *              working on a common directory               *
           ************************************************************

-------------------------------------------------------------------------------------------
                                      ORCA LEAN-SCF
                              memory conserving SCF solver
-------------------------------------------------------------------------------------------

----------------------------------------D-I-I-S--------------------------------------------
Iteration    Energy (Eh)           Delta-E    RMSDP     MaxDP     DIISErr   Damp  Time(sec)
-------------------------------------------------------------------------------------------
               ***  Starting incremental Fock matrix formation  ***
    1    -494.9388656552314956     0.00e+00  4.04e-03  8.94e-02  1.02e-01  0.700  10.8
    2    -494.9902878210751282    -5.14e-02  3.09e-03  6.64e-02  5.06e-02  0.700  11.0
                               ***Turning on AO-DIIS***
    3    -495.0168744678948656    -2.66e-02  1.90e-03  3.21e-02  2.47e-02  0.700  10.7
    4    -495.0335504033877783    -1.67e-02  4.33e-03  6.22e-02  1.76e-02  0.000   9.7
    5    -495.0720928215656045    -3.85e-02  5.42e-04  6.26e-03  6.41e-03  0.000  11.1
                              *** Initializing SOSCF ***
---------------------------------------S-O-S-C-F--------------------------------------
Iteration    Energy (Eh)           Delta-E    RMSDP     MaxDP     MaxGrad    Time(sec)
--------------------------------------------------------------------------------------
    6    -495.0725210232416771    -4.28e-04  2.73e-04  4.50e-03  2.56e-03     9.4
               *** Restarting incremental Fock matrix formation ***
    7    -495.0726711811770997    -1.50e-04  2.11e-04  3.27e-03  1.56e-03    11.7
    8    -495.0727679771583212    -9.68e-05  5.95e-04  1.36e-02  2.34e-03     9.5
    9    -495.0728812531952485    -1.13e-04  2.26e-04  2.76e-03  1.71e-03     9.5
   10    -495.0729503490330785    -6.91e-05  4.38e-04  7.75e-03  1.50e-03     9.9
   11    -495.0730355853631295    -8.52e-05  3.26e-04  7.76e-03  1.51e-03     9.2
   12    -495.0730886000241640    -5.30e-05  2.16e-04  4.99e-03  7.31e-04     9.9
   13    -495.0731018360411895    -1.32e-05  5.32e-05  8.13e-04  3.62e-04     9.7
   14    -495.0731048716143619    -3.04e-06  2.68e-05  5.97e-04  2.38e-04     8.3
   15    -495.0731059460472920    -1.07e-06  2.28e-05  5.19e-04  8.10e-05     8.9
   16    -495.0731061964380046    -2.50e-07  1.87e-05  5.58e-04  5.18e-05     8.0
   17    -495.0731062548892965    -5.85e-08  7.94e-06  1.19e-04  2.11e-05     7.7
   18    -495.0731062693246827    -1.44e-08  1.17e-05  2.96e-04  8.46e-06     8.0
   19    -495.0731062741890014    -4.86e-09  1.99e-05  6.91e-04  3.54e-06     7.9
                 **** Energy Check signals convergence ****

               *****************************************************
               *                     SUCCESS                       *
               *           SCF CONVERGED AFTER  19 CYCLES          *
               *****************************************************

             **** ENERGY FILE WAS UPDATED (t1_freq_2_wat.en.tmp) ****

----------------
TOTAL SCF ENERGY
----------------

Total Energy       :       -495.07310627627481 Eh          -13471.62411 eV

Components:
Nuclear Repulsion  :        378.45681416470819 Eh           10298.33347 eV
Electronic Energy  :       -873.52992044098301 Eh          -23769.95758 eV
One Electron Energy:      -1427.44138547337388 Eh          -38842.65482 eV
Two Electron Energy:        553.91146503239088 Eh           15072.69724 eV

Virial components:
Potential Energy   :       -987.13946998238885 Eh          -26861.43059 eV
Kinetic Energy     :        492.06636370611398 Eh           13389.80648 eV
Virial Ratio       :          2.00611044117609

DFT components:
N(Alpha)           :       34.000033061641 electrons
N(Beta)            :       32.000045044185 electrons
N(Total)           :       66.000078105826 electrons
E(XC)              :      -43.146772990549 Eh       

---------------
SCF CONVERGENCE
---------------

  Last Energy change         ...    4.8643e-09  Tolerance :   1.0000e-08
  Last MAX-Density change    ...    6.9070e-04  Tolerance :   1.0000e-07
  Last RMS-Density change    ...    1.9866e-05  Tolerance :   5.0000e-09
  Last DIIS Error            ...    2.5639e-03  Tolerance :   5.0000e-07
  Last Orbital Gradient      ...    3.5370e-06  Tolerance :   1.0000e-05
  Last Orbital Rotation      ...    3.9473e-05  Tolerance :   1.0000e-05


----------------------
UHF SPIN CONTAMINATION
----------------------

Warning: in a DFT calculation there is little theoretical justification to 
         calculate <S**2> as in Hartree-Fock theory. We will do it anyways
         but you should keep in mind that the values have only limited relevance

Expectation value of <S**2>     :     2.013664
Ideal value S*(S+1) for S=1.0   :     2.000000
Deviation                       :     0.013664

----------------
ORBITAL ENERGIES
----------------
                 SPIN UP ORBITALS
  NO   OCC          E(Eh)            E(eV) 
   0   1.0000     -19.404439      -528.0216 
   1   1.0000     -19.368264      -527.0373 
   2   1.0000     -19.346253      -526.4383 
   3   1.0000     -19.280663      -524.6535 
   4   1.0000     -19.247233      -523.7438 
   5   1.0000     -10.491199      -285.4801 
   6   1.0000     -10.440967      -284.1132 
   7   1.0000     -10.361037      -281.9382 
   8   1.0000      -1.276652       -34.7395 
   9   1.0000      -1.237287       -33.6683 
  10   1.0000      -1.185210       -32.2512 
  11   1.0000      -1.118491       -30.4357 
  12   1.0000      -1.087399       -29.5896 
  13   1.0000      -0.929071       -25.2813 
  14   1.0000      -0.836901       -22.7732 
  15   1.0000      -0.739021       -20.1098 
  16   1.0000      -0.686143       -18.6709 
  17   1.0000      -0.654336       -17.8054 
  18   1.0000      -0.629709       -17.1353 
  19   1.0000      -0.622726       -16.9452 
  20   1.0000      -0.595820       -16.2131 
  21   1.0000      -0.574429       -15.6310 
  22   1.0000      -0.566864       -15.4251 
  23   1.0000      -0.558670       -15.2022 
  24   1.0000      -0.528675       -14.3860 
  25   1.0000      -0.522505       -14.2181 
  26   1.0000      -0.517802       -14.0901 
  27   1.0000      -0.485349       -13.2070 
  28   1.0000      -0.474593       -12.9143 
  29   1.0000      -0.468879       -12.7589 
  30   1.0000      -0.434699       -11.8288 
  31   1.0000      -0.408430       -11.1139 
  32   1.0000      -0.376763       -10.2522 
  33   1.0000      -0.323988        -8.8162 
  34   0.0000       0.021396         0.5822 
  35   0.0000       0.037787         1.0282 
  36   0.0000       0.042110         1.1459 
  37   0.0000       0.050750         1.3810 
  38   0.0000       0.063273         1.7217 
  39   0.0000       0.066614         1.8126 
  40   0.0000       0.071483         1.9452 
  41   0.0000       0.077564         2.1106 
  42   0.0000       0.091188         2.4813 
  43   0.0000       0.101255         2.7553 
  44   0.0000       0.106818         2.9067 

                 SPIN DOWN ORBITALS
  NO   OCC          E(Eh)            E(eV) 
   0   1.0000     -19.385397      -527.5035 
   1   1.0000     -19.366043      -526.9768 
   2   1.0000     -19.335498      -526.1456 
   3   1.0000     -19.279757      -524.6289 
   4   1.0000     -19.246874      -523.7341 
   5   1.0000     -10.489406      -285.4312 
   6   1.0000     -10.434260      -283.9306 
   7   1.0000     -10.360166      -281.9144 
   8   1.0000      -1.258704       -34.2511 
   9   1.0000      -1.197105       -32.5749 
  10   1.0000      -1.166334       -31.7376 
  11   1.0000      -1.115505       -30.3544 
  12   1.0000      -1.086253       -29.5585 
  13   1.0000      -0.904027       -24.5998 
  14   1.0000      -0.810790       -22.0627 
  15   1.0000      -0.724847       -19.7241 
  16   1.0000      -0.662425       -18.0255 
  17   1.0000      -0.627162       -17.0660 
  18   1.0000      -0.613299       -16.6887 
  19   1.0000      -0.596422       -16.2295 
  20   1.0000      -0.584337       -15.9006 
  21   1.0000      -0.567213       -15.4346 
  22   1.0000      -0.547070       -14.8865 
  23   1.0000      -0.544965       -14.8293 
  24   1.0000      -0.512624       -13.9492 
  25   1.0000      -0.493782       -13.4365 
  26   1.0000      -0.481161       -13.0931 
  27   1.0000      -0.465950       -12.6792 
  28   1.0000      -0.448456       -12.2031 
  29   1.0000      -0.410258       -11.1637 
  30   1.0000      -0.402758       -10.9596 
  31   1.0000      -0.375913       -10.2291 
  32   0.0000      -0.200202        -5.4478 
  33   0.0000      -0.066813        -1.8181 
  34   0.0000       0.022569         0.6141 
  35   0.0000       0.039305         1.0696 
  36   0.0000       0.043450         1.1823 
  37   0.0000       0.053869         1.4658 
  38   0.0000       0.067121         1.8265 
  39   0.0000       0.071964         1.9582 
  40   0.0000       0.078454         2.1348 
  41   0.0000       0.092070         2.5054 
  42   0.0000       0.099781         2.7152 
*Only the first 10 virtual orbitals were printed.

                    ********************************
                    * MULLIKEN POPULATION ANALYSIS *
                    ********************************

--------------------------------------------
MULLIKEN ATOMIC CHARGES AND SPIN POPULATIONS
--------------------------------------------
   0 C :    0.209106    0.493528
   1 C :    0.931555    0.064586
   2 C :    0.546895    0.038796
   3 H :   -0.011956    0.020149
   4 H :    0.007879    0.020042
   5 H :   -0.227427    0.000619
   6 O :   -0.730902    0.804168
   7 O :   -0.547018    0.450291
   8 O :   -0.511104    0.084807
   9 H :    0.222680   -0.005391
  10 O :   -0.297124    0.014673
  11 H :    0.121502   -0.000877
  12 H :    0.190296   -0.006238
  13 O :   -0.245207    0.036317
  14 H :    0.107647   -0.001688
  15 H :    0.233177   -0.013783
Sum of atomic charges         :    0.0000000
Sum of atomic spin populations:    2.0000000

-----------------------------------------------------
MULLIKEN REDUCED ORBITAL CHARGES AND SPIN POPULATIONS
-----------------------------------------------------
CHARGE
  0 C s       :     3.140726  s :     3.140726
      pz      :     0.930280  p :     2.328548
      px      :     0.666115
      py      :     0.732153
      dz2     :     0.011092  d :     0.321620
      dxz     :     0.082188
      dyz     :     0.032398
      dx2y2   :     0.160740
      dxy     :     0.035202

  1 C s       :     3.091938  s :     3.091938
      pz      :     0.785919  p :     1.840528
      px      :     0.463820
      py      :     0.590789
      dz2     :    -0.003620  d :     0.135979
      dxz     :     0.034622
      dyz     :     0.052168
      dx2y2   :     0.079595
      dxy     :    -0.026787

  2 C s       :     3.025990  s :     3.025990
      pz      :     0.867794  p :     2.469977
      px      :     0.975533
      py      :     0.626650
      dz2     :    -0.008068  d :    -0.042862
      dxz     :    -0.018125
      dyz     :     0.006227
      dx2y2   :     0.002990
      dxy     :    -0.025886

  3 H s       :     1.019599  s :     1.019599
      pz      :     0.006816  p :    -0.007643
      px      :    -0.010829
      py      :    -0.003630

  4 H s       :     1.003643  s :     1.003643
      pz      :     0.004850  p :    -0.011523
      px      :    -0.009739
      py      :    -0.006634

  5 H s       :     1.215470  s :     1.215470
      pz      :    -0.009192  p :     0.011957
      px      :     0.023235
      py      :    -0.002086

  6 O s       :     4.162508  s :     4.162508
      pz      :     1.726038  p :     4.529670
      px      :     1.450362
      py      :     1.353271
      dz2     :     0.001945  d :     0.038723
      dxz     :     0.000658
      dyz     :     0.015853
      dx2y2   :     0.009980
      dxy     :     0.010287

  7 O s       :     4.065669  s :     4.065669
      pz      :     1.563496  p :     4.444135
      px      :     1.575417
      py      :     1.305221
      dz2     :     0.001936  d :     0.037214
      dxz     :     0.001745
      dyz     :     0.015912
      dx2y2   :     0.007633
      dxy     :     0.009988

  8 O s       :     3.989684  s :     3.989684
      pz      :     1.803205  p :     4.500645
      px      :     1.512128
      py      :     1.185312
      dz2     :     0.001259  d :     0.020775
      dxz     :     0.008931
      dyz     :     0.004840
      dx2y2   :     0.004450
      dxy     :     0.001295

  9 H s       :     0.708368  s :     0.708368
      pz      :     0.029281  p :     0.068952
      px      :     0.018963
      py      :     0.020708

 10 O s       :     3.810148  s :     3.810148
      pz      :     1.905128  p :     4.495410
      px      :     1.326123
      py      :     1.264160
      dz2     :    -0.001870  d :    -0.008434
      dxz     :     0.001819
      dyz     :     0.001495
      dx2y2   :    -0.010984
      dxy     :     0.001106

 11 H s       :     0.777022  s :     0.777022
      pz      :     0.046688  p :     0.101477
      px      :     0.023276
      py      :     0.031512

 12 H s       :     0.748419  s :     0.748419
      pz      :     0.046089  p :     0.061286
      px      :    -0.000518
      py      :     0.015715

 13 O s       :     3.774841  s :     3.774841
      pz      :     1.320249  p :     4.478293
      px      :     1.438811
      py      :     1.719233
      dz2     :    -0.006762  d :    -0.007926
      dxz     :     0.001140
      dyz     :    -0.000823
      dx2y2   :     0.000071
      dxy     :    -0.001552

 14 H s       :     0.784990  s :     0.784990
      pz      :     0.038437  p :     0.107363
      px      :     0.029782
      py      :     0.039145

 15 H s       :     0.703994  s :     0.703994
      pz      :     0.032834  p :     0.062829
      px      :     0.005964
      py      :     0.024031


SPIN
  0 C s       :    -0.013130  s :    -0.013130
      pz      :     0.449058  p :     0.511512
      px      :     0.059496
      py      :     0.002958
      dz2     :    -0.001552  d :    -0.004853
      dxz     :     0.010204
      dyz     :     0.008762
      dx2y2   :    -0.006583
      dxy     :    -0.015683

  1 C s       :    -0.044039  s :    -0.044039
      pz      :     0.084170  p :     0.084866
      px      :     0.007980
      py      :    -0.007284
      dz2     :    -0.000253  d :     0.023758
      dxz     :     0.022781
      dyz     :     0.000026
      dx2y2   :     0.001286
      dxy     :    -0.000082

  2 C s       :    -0.000493  s :    -0.000493
      pz      :    -0.001763  p :     0.037244
      px      :     0.005551
      py      :     0.033457
      dz2     :    -0.000547  d :     0.002045
      dxz     :    -0.004667
      dyz     :     0.001260
      dx2y2   :     0.004057
      dxy     :     0.001941

  3 H s       :     0.022060  s :     0.022060
      pz      :     0.000042  p :    -0.001910
      px      :    -0.002604
      py      :     0.000651

  4 H s       :     0.022750  s :     0.022750
      pz      :    -0.000270  p :    -0.002708
      px      :    -0.002842
      py      :     0.000404

  5 H s       :    -0.001502  s :    -0.001502
      pz      :     0.000505  p :     0.002121
      px      :     0.000542
      py      :     0.001074

  6 O s       :     0.038630  s :     0.038630
      pz      :     0.186777  p :     0.765559
      px      :     0.564016
      py      :     0.014767
      dz2     :    -0.000053  d :    -0.000021
      dxz     :     0.000072
      dyz     :     0.002197
      dx2y2   :     0.000004
      dxy     :    -0.002242

  7 O s       :     0.020466  s :     0.020466
      pz      :     0.172048  p :     0.430949
      px      :     0.238043
      py      :     0.020859
      dz2     :     0.000056  d :    -0.001123
      dxz     :    -0.000046
      dyz     :    -0.000521
      dx2y2   :    -0.000086
      dxy     :    -0.000526

  8 O s       :     0.008784  s :     0.008784
      pz      :     0.034918  p :     0.076405
      px      :    -0.003783
      py      :     0.045270
      dz2     :    -0.000223  d :    -0.000381
      dxz     :    -0.000592
      dyz     :     0.000262
      dx2y2   :    -0.000494
      dxy     :     0.000666

  9 H s       :    -0.010412  s :    -0.010412
      pz      :     0.000380  p :     0.005021
      px      :     0.005037
      py      :    -0.000396

 10 O s       :     0.000123  s :     0.000123
      pz      :     0.000844  p :     0.014459
      px      :     0.013181
      py      :     0.000434
      dz2     :     0.000013  d :     0.000090
      dxz     :    -0.000006
      dyz     :     0.000001
      dx2y2   :     0.000057
      dxy     :     0.000026

 11 H s       :    -0.000773  s :    -0.000773
      pz      :    -0.000073  p :    -0.000104
      px      :     0.000113
      py      :    -0.000144

 12 H s       :    -0.004147  s :    -0.004147
      pz      :    -0.000058  p :    -0.002091
      px      :    -0.001852
      py      :    -0.000180

 13 O s       :     0.000284  s :     0.000284
      pz      :     0.001107  p :     0.035814
      px      :     0.022273
      py      :     0.012434
      dz2     :     0.000069  d :     0.000219
      dxz     :     0.000070
      dyz     :     0.000027
      dx2y2   :     0.000050
      dxy     :     0.000004

 14 H s       :    -0.001777  s :    -0.001777
      pz      :    -0.000002  p :     0.000089
      px      :     0.000126
      py      :    -0.000035

 15 H s       :    -0.012586  s :    -0.012586
      pz      :     0.000528  p :    -0.001197
      px      :    -0.001799
      py      :     0.000074



                     *******************************
                     * LOEWDIN POPULATION ANALYSIS *
                     *******************************

-------------------------------------------
LOEWDIN ATOMIC CHARGES AND SPIN POPULATIONS
-------------------------------------------
   0 C :   -0.271207    0.427613
   1 C :   -0.344723    0.189505
   2 C :    0.206616    0.096026
   3 H :    0.013264    0.015158
   4 H :    0.015794    0.015252
   5 H :    0.006634    0.007566
   6 O :    0.219793    0.722638
   7 O :    0.181950    0.393189
   8 O :    0.269971    0.075612
   9 H :   -0.078338    0.007827
  10 O :    0.203957    0.012329
  11 H :   -0.123830   -0.000049
  12 H :   -0.201519    0.001120
  13 O :    0.218396    0.030806
  14 H :   -0.105519    0.000722
  15 H :   -0.211239    0.004685

----------------------------------------------------
LOEWDIN REDUCED ORBITAL CHARGES AND SPIN POPULATIONS
----------------------------------------------------
CHARGE
  0 C s       :     2.589046  s :     2.589046
      pz      :     0.764376  p :     2.555581
      px      :     0.909426
      py      :     0.881779
      dz2     :     0.099900  d :     1.126580
      dxz     :     0.148284
      dyz     :     0.199447
      dx2y2   :     0.360540
      dxy     :     0.318408

  1 C s       :     2.561694  s :     2.561694
      pz      :     0.688313  p :     2.441465
      px      :     0.875731
      py      :     0.877421
      dz2     :     0.116950  d :     1.341565
      dxz     :     0.161351
      dyz     :     0.245517
      dx2y2   :     0.394832
      dxy     :     0.422914

  2 C s       :     2.603196  s :     2.603196
      pz      :     0.950709  p :     2.770260
      px      :     0.910166
      py      :     0.909385
      dz2     :     0.064490  d :     0.419928
      dxz     :     0.122746
      dyz     :     0.032923
      dx2y2   :     0.102405
      dxy     :     0.097364

  3 H s       :     0.714332  s :     0.714332
      pz      :     0.116826  p :     0.272404
      px      :     0.087959
      py      :     0.067619

  4 H s       :     0.713544  s :     0.713544
      pz      :     0.117642  p :     0.270662
      px      :     0.086889
      py      :     0.066132

  5 H s       :     0.708297  s :     0.708297
      pz      :     0.073303  p :     0.285069
      px      :     0.085970
      py      :     0.125796

  6 O s       :     3.359732  s :     3.359732
      pz      :     1.562016  p :     4.214570
      px      :     1.222665
      py      :     1.429889
      dz2     :     0.024065  d :     0.205905
      dxz     :     0.002295
      dyz     :     0.051465
      dx2y2   :     0.064295
      dxy     :     0.063785

  7 O s       :     3.361813  s :     3.361813
      pz      :     1.427348  p :     4.277513
      px      :     1.411704
      py      :     1.438461
      dz2     :     0.021423  d :     0.178723
      dxz     :     0.005053
      dyz     :     0.037652
      dx2y2   :     0.059566
      dxy     :     0.055028

  8 O s       :     3.242748  s :     3.242748
      pz      :     1.595763  p :     4.304600
      px      :     1.478009
      py      :     1.230827
      dz2     :     0.024442  d :     0.182681
      dxz     :     0.016645
      dyz     :     0.020375
      dx2y2   :     0.046457
      dxy     :     0.074761

  9 H s       :     0.589926  s :     0.589926
      pz      :     0.116800  p :     0.488411
      px      :     0.204303
      py      :     0.167308

 10 O s       :     3.263155  s :     3.263155
      pz      :     1.711505  p :     4.479172
      px      :     1.407517
      py      :     1.360150
      dz2     :     0.010654  d :     0.053716
      dxz     :     0.000416
      dyz     :     0.000309
      dx2y2   :     0.040276
      dxy     :     0.002061

 11 H s       :     0.634727  s :     0.634727
      pz      :     0.146115  p :     0.489104
      px      :     0.116839
      py      :     0.226150

 12 H s       :     0.609252  s :     0.609252
      pz      :     0.148381  p :     0.592266
      px      :     0.330505
      py      :     0.113381

 13 O s       :     3.262434  s :     3.262434
      pz      :     1.393017  p :     4.465655
      px      :     1.469767
      py      :     1.602871
      dz2     :     0.027280  d :     0.053516
      dxz     :     0.002895
      dyz     :     0.005302
      dx2y2   :     0.006435
      dxy     :     0.011603

 14 H s       :     0.634646  s :     0.634646
      pz      :     0.215248  p :     0.470872
      px      :     0.117165
      py      :     0.138459

 15 H s       :     0.605190  s :     0.605190
      pz      :     0.119847  p :     0.606049
      px      :     0.310274
      py      :     0.175928


SPIN
  0 C s       :     0.004052  s :     0.004052
      pz      :     0.305549  p :     0.332209
      px      :     0.032800
      py      :    -0.006141
      dz2     :    -0.000755  d :     0.091353
      dxz     :     0.021623
      dyz     :     0.020719
      dx2y2   :     0.008282
      dxy     :     0.041484

  1 C s       :     0.003111  s :     0.003111
      pz      :     0.064872  p :     0.077989
      px      :     0.016730
      py      :    -0.003614
      dz2     :     0.001275  d :     0.108406
      dxz     :     0.073183
      dyz     :     0.010242
      dx2y2   :     0.009477
      dxy     :     0.014229

  2 C s       :     0.000573  s :     0.000573
      pz      :    -0.000229  p :     0.042542
      px      :     0.009472
      py      :     0.033298
      dz2     :     0.000304  d :     0.052911
      dxz     :     0.044053
      dyz     :     0.008304
      dx2y2   :    -0.001068
      dxy     :     0.001318

  3 H s       :     0.011927  s :     0.011927
      pz      :     0.000535  p :     0.003231
      px      :     0.001405
      py      :     0.001291

  4 H s       :     0.012119  s :     0.012119
      pz      :     0.000544  p :     0.003133
      px      :     0.001470
      py      :     0.001120

  5 H s       :     0.004282  s :     0.004282
      pz      :    -0.000414  p :     0.003284
      px      :     0.004160
      py      :    -0.000462

  6 O s       :     0.012036  s :     0.012036
      pz      :     0.181992  p :     0.671370
      px      :     0.479378
      py      :     0.010000
      dz2     :     0.000032  d :     0.039232
      dxz     :     0.001129
      dyz     :     0.033022
      dx2y2   :     0.001046
      dxy     :     0.004003

  7 O s       :     0.006475  s :     0.006475
      pz      :     0.155279  p :     0.375480
      px      :     0.205429
      py      :     0.014772
      dz2     :    -0.000015  d :     0.011234
      dxz     :     0.001295
      dyz     :     0.007887
      dx2y2   :    -0.000054
      dxy     :     0.002121

  8 O s       :    -0.000438  s :    -0.000438
      pz      :     0.034036  p :     0.071069
      px      :    -0.002441
      py      :     0.039475
      dz2     :    -0.000325  d :     0.004980
      dxz     :     0.002919
      dyz     :     0.002567
      dx2y2   :    -0.001056
      dxy     :     0.000875

  9 H s       :    -0.005575  s :    -0.005575
      pz      :     0.001762  p :     0.013402
      px      :     0.012414
      py      :    -0.000774

 10 O s       :     0.000116  s :     0.000116
      pz      :     0.001146  p :     0.012469
      px      :     0.011164
      py      :     0.000159
      dz2     :    -0.000077  d :    -0.000255
      dxz     :     0.000022
      dyz     :     0.000000
      dx2y2   :    -0.000183
      dxy     :    -0.000017

 11 H s       :    -0.000298  s :    -0.000298
      pz      :    -0.000130  p :     0.000249
      px      :     0.000298
      py      :     0.000081

 12 H s       :    -0.001411  s :    -0.001411
      pz      :     0.000416  p :     0.002531
      px      :     0.002295
      py      :    -0.000181

 13 O s       :     0.000432  s :     0.000432
      pz      :     0.001235  p :     0.030943
      px      :     0.018497
      py      :     0.011211
      dz2     :    -0.000137  d :    -0.000568
      dxz     :    -0.000009
      dyz     :     0.000001
      dx2y2   :    -0.000131
      dxy     :    -0.000292

 14 H s       :    -0.000291  s :    -0.000291
      pz      :     0.000246  p :     0.001014
      px      :     0.000611
      py      :     0.000156

 15 H s       :    -0.003440  s :    -0.003440
      pz      :     0.002091  p :     0.008125
      px      :     0.004117
      py      :     0.001917



                      *****************************
                      * MAYER POPULATION ANALYSIS *
                      *****************************

  NA   - Mulliken gross atomic population
  ZA   - Total nuclear charge
  QA   - Mulliken gross atomic charge
  VA   - Mayer's total valence
  BVA  - Mayer's bonded valence
  FA   - Mayer's free valence

  ATOM       NA         ZA         QA         VA         BVA        FA
  0 C      5.7909     6.0000     0.2091     3.7420     3.4955     0.2465
  1 C      5.0684     6.0000     0.9316     2.5465     2.5222     0.0243
  2 C      5.4531     6.0000     0.5469     3.8230     3.8201     0.0029
  3 H      1.0120     1.0000    -0.0120     0.8738     0.8732     0.0006
  4 H      0.9921     1.0000     0.0079     0.8595     0.8589     0.0007
  5 H      1.2274     1.0000    -0.2274     0.8647     0.8647     0.0000
  6 O      8.7309     8.0000    -0.7309     1.9211     1.5444     0.3767
  7 O      8.5470     8.0000    -0.5470     1.9449     1.8472     0.0977
  8 O      8.5111     8.0000    -0.5111     1.8235     1.8198     0.0037
  9 H      0.7773     1.0000     0.2227     0.9576     0.9574     0.0002
 10 O      8.2971     8.0000    -0.2971     1.9340     1.9338     0.0002
 11 H      0.8785     1.0000     0.1215     1.0188     1.0188     0.0000
 12 H      0.8097     1.0000     0.1903     0.9378     0.9377     0.0001
 13 O      8.2452     8.0000    -0.2452     1.9950     1.9938     0.0012
 14 H      0.8924     1.0000     0.1076     1.0477     1.0477     0.0000
 15 H      0.7668     1.0000     0.2332     0.8900     0.8897     0.0003

  Mayer bond orders larger than 0.100000
B(  0-C ,  1-C ) :   0.6945 B(  0-C ,  2-C ) :   1.2945 B(  0-C ,  3-H ) :   0.1490 
B(  0-C ,  4-H ) :   0.1461 B(  0-C ,  5-H ) :   0.2502 B(  0-C ,  6-O ) :   0.8980 
B(  0-C ,  8-O ) :   0.1739 B(  1-C ,  2-C ) :  -0.1130 B(  1-C ,  5-H ) :  -0.1303 
B(  1-C ,  6-O ) :   0.1481 B(  1-C ,  7-O ) :   1.4596 B(  1-C ,  8-O ) :   0.6170 
B(  2-C ,  3-H ) :   0.8633 B(  2-C ,  4-H ) :   0.8588 B(  2-C ,  5-H ) :   0.8047 
B(  6-O ,  7-O ) :   0.2023 B(  8-O ,  9-H ) :   0.9443 B( 10-O , 11-H ) :   1.0424 
B( 10-O , 12-H ) :   0.9097 B( 13-O , 14-H ) :   1.0593 B( 13-O , 15-H ) :   0.8566 


-------
TIMINGS
-------

Total SCF time: 0 days 0 hours 3 min 8 sec 

Total time                  ....     188.193 sec
Sum of individual times     ....     181.358 sec  ( 96.4%)

SCF preparation             ....       0.508 sec  (  0.3%)
Fock matrix formation       ....     179.225 sec  ( 95.2%)
  Startup                   ....       0.053 sec  (  0.0% of F)
  Coulomb+Exchange Fock     ....     161.586 sec  ( 90.2% of F)
  XC integration            ....      23.811 sec  ( 13.3% of F)
    XC Preparation          ....       0.000 sec  (  0.0% of XC)
    Basis function eval.    ....       5.967 sec  ( 25.1% of XC)
    Density eval.           ....       5.861 sec  ( 24.6% of XC)
    XC-Functional eval.     ....       1.490 sec  (  6.3% of XC)
    XC-Potential eval.      ....       9.220 sec  ( 38.7% of XC)
Diagonalization             ....       0.000 sec  (  0.0%)
Density matrix formation    ....       0.280 sec  (  0.1%)
Total Energy calculation    ....       0.079 sec  (  0.0%)
Population analysis         ....       0.118 sec  (  0.1%)
Orbital Transformation      ....       0.099 sec  (  0.1%)
Orbital Orthonormalization  ....       0.000 sec  (  0.0%)
DIIS solution               ....       0.405 sec  (  0.2%)
SOSCF solution              ....       0.644 sec  (  0.3%)
Finished LeanSCF after 188.2 sec

Maximum memory used throughout the entire LEANSCF-calculation: 19.1 MB


           ************************************************************
           *        Program running with 8 parallel MPI-processes     *
           *              working on a common directory               *
           ************************************************************

------------------------------------------------------------------------------
                         ORCA PROPERTY INTEGRAL CALCULATIONS
------------------------------------------------------------------------------

GBWName                                   ... t1_freq_2_wat.gbw
Number of atoms                           ...     16
Number of basis functions                 ...    304
Max core memory                           ...   8000 MB

Dipole integrals                          ... YES
Quadrupole integrals                      ...  NO
Linear momentum integrals                 ...  NO
Angular momentum integrals                ...  NO
Higher moments length integrals           ...  NO
Higher moments velocity integrals         ...  NO
Kinetic energy integrals                  ...  NO
GIAO right hand sides                     ...  NO
GIAO dipole derivative integrals          ...  NO
SOC integrals                             ...  NO
EPR diamagnetic integrals (GIAO)          ...  NO
EPR gauge integrals                       ...  NO
Field gradient integrals                  ...  NO (   0 nuclei)
Spin-dipole/Fermi contact integrals       ...  NO (   0 nuclei)
Contact density integrals                 ...  NO (   0 nuclei)
Nucleus-orbit integrals                   ...  NO (   0 nuclei)
Geometric perturbations                   ... YES (  16 nuclei)

Choice of electric origin   ... Center of mass
Position of electric origin ... (  0.2237, -0.3627,  0.1020) 
Choice of magnetic origin   ... GIAO
Position of magnetic origin ... (  0.0000,  0.0000,  0.0000) 

Calculating integrals                     ... Electric Dipole (Length)     done (  0.0 sec)
Calculating integrals                     ... Geometrical perturbation right hand sides

-----------------------
GEOMETRIC PERTURBATIONS (16 nuclei)
-----------------------

MaxCore                            ...   8000 MB
Number of batches                  ...      1

BATCH   0: Atoms    0 -   15 ( 48 perturbations)
   => H(core) and overlap derivative integrals     ... done (     0.3 sec)
   => Making and storing internal U-coefficients   ... done (     0.1 sec)
   => Exact two electron derivative integrals      ... done (    92.0 sec)
   => Exact two-electron response operators        ... done (   406.9 sec)
   => XC derivative integrals                      ... done (   145.3 sec)
   => XC response operators                        ... done (    37.6 sec)
   => Completing and storing right hand sides      ... done (     0.0 sec)
   => Total time for right hand sides = 591.3 sec

  geometrical perturbations done (591.4 sec)

Property integrals calculated in 591.4 sec

Maximum memory used throughout the entire PROPINT-calculation: 142.0 MB

-------------------------   --------------------
FINAL SINGLE POINT ENERGY      -495.073106276275
-------------------------   --------------------



           ************************************************************
           *        Program running with 8 parallel MPI-processes     *
           *              working on a common directory               *
           ************************************************************
------------------------------------------------------------------------------
                         ORCA SCF GRADIENT CALCULATION
------------------------------------------------------------------------------

Nuc. rep. gradient        (SHARK) ... done (  0.0 sec)
HCore & Overlap gradient  (SHARK) ... done (  0.1 sec)
Two-electron gradient     (SHARK) ... done ( 28.2 sec)
XC gradient                       ... done (  5.8 sec)

------------------
CARTESIAN GRADIENT
------------------

   1   C   :    0.024219325    0.006462977    0.000151571
   2   C   :   -0.047099786   -0.010708609    0.000086558
   3   C   :    0.011733211    0.000506805   -0.000030631
   4   H   :   -0.002268741    0.000796282    0.000976513
   5   H   :   -0.002271098    0.000860772   -0.000940487
   6   H   :   -0.005218252    0.002333396   -0.000004445
   7   O   :   -0.010824755   -0.027826281    0.000214943
   8   O   :    0.025053264    0.031947526    0.000385620
   9   O   :    0.020157791   -0.010911862   -0.000122373
  10   H   :   -0.013504135    0.003308990    0.000121932
  11   O   :    0.014466813    0.000910088    0.000183386
  12   H   :   -0.004682219    0.000763904   -0.000018373
  13   H   :   -0.016653936   -0.003102683   -0.000257801
  14   O   :   -0.016370831   -0.011536383    0.004243972
  15   H   :    0.001632072    0.001963862   -0.002456747
  16   H   :    0.021631277    0.014231215   -0.002533638

Difference to translation invariance:
           :    0.0000000000    0.0000000000   -0.0000000000

Difference to rotation invariance:
           :    0.0000291561   -0.0000483840    0.0000415096

Norm of the Cartesian gradient     ...    0.0896242776
RMS gradient                       ...    0.0129361502
MAX gradient                       ...    0.0470997862

-------
TIMINGS
-------

Total SCF gradient time     ....       34.085 sec

Densities                   ....       0.033 sec  (  0.1%)
One electron gradient       ....       0.112 sec  (  0.3%)
Two electron gradient       ....      28.186 sec  ( 82.7%)
XC gradient                 ....       5.754 sec  ( 16.9%)

Maximum memory used throughout the entire SCFGRAD-calculation: 38.5 MB


           ************************************************************
           *        Program running with 8 parallel MPI-processes     *
           *              working on a common directory               *
           ************************************************************
------------------------------------------------------------------------------
                            ORCA SCF RESPONSE CALCULATION
------------------------------------------------------------------------------

GBWName                                 ... t1_freq_2_wat.gbw
Number of atoms                         ...     16
Number of basis functions               ...    304
Max core memory                         ...   8000 MB

Electric field perturbation             ...  NO
Quadrupolar field perturbation          ...  NO
Magnetic field perturbation (no GIAO)   ...  NO
Magnetic field perturbation (with GIAO) ...  NO
Linear momentum (velocity) perturbation ...  NO
Spin-orbit coupling perturbation        ...  NO
Choice of electric origin               ... Center of mass
Position of electric origin             ...     0.223707    -0.362709     0.101951
Choice of magnetic origin               ... GIAO
Position of magnetic origin             ...     0.000000     0.000000     0.000000
Nuclear geometric perturbations         ... YES (  48 perturbations)
Nucleus-orbit perturbations             ...  NO (   0 perturbations)
Spin-dipole/Fermi contact perturbations ...  NO (   0 perturbations)

Total number of real perturbations      ...     48
Total number of imaginary perturbations ...      0
Total number of triplet perturbations   ...      0
Total number of SOC perturbations       ...      0

Using XC Grid                  ... (t1_freq_2_wat.grid_cpscf.tmp) 
Recalculating density on grid  ... (t1_freq_2_wat.grho_cpscf0.tmp) done
Calculating the xc-kernel      ... (t1_freq_2_wat.fxc_cpscf0.tmp) done

                                **********************
                                * REAL PERTURBATIONS *
                                **********************



-------------------
SHARK CP-SCF DRIVER
-------------------

Dimension of the orbital basis          ...    256
Dimension of the CPSCF-problem          ...  14716
Number of operators                     ...      2
Max. number of iterations               ...    128
Convergence Tolerance                   ... 1.0e-04
Number of perturbations                 ...     48
Perturbation type                       ... REAL

----------------------------
POPLE LINEAR EQUATION SOLVER
----------------------------

  ITERATION   0:   ||err||_max =   5.3393e-01 ( 743.5 sec   0/ 48 done)
  ITERATION   1:   ||err||_max =   2.3267e-01 ( 751.1 sec   0/ 48 done)
  ITERATION   2:   ||err||_max =   1.8177e-01 ( 729.3 sec   0/ 48 done)
  ITERATION   3:   ||err||_max =   1.7105e-01 ( 740.3 sec   0/ 48 done)
  ITERATION   4:   ||err||_max =   1.2890e-01 ( 764.2 sec   0/ 48 done)
  ITERATION   5:   ||err||_max =   9.4172e-02 ( 754.1 sec   0/ 48 done)
  ITERATION   6:   ||err||_max =   5.1542e-02 ( 796.1 sec   0/ 48 done)
  ITERATION   7:   ||err||_max =   2.3170e-02 ( 813.7 sec   0/ 48 done)
  ITERATION   8:   ||err||_max =   9.8269e-03 ( 736.9 sec   1/ 48 done)
  ITERATION   9:   ||err||_max =   3.9427e-03 ( 707.6 sec   2/ 48 done)
  ITERATION  10:   ||err||_max =   1.6849e-03 ( 679.8 sec   4/ 48 done)
  ITERATION  11:   ||err||_max =   1.0838e-03 ( 657.4 sec  11/ 48 done)
  ITERATION  12:   ||err||_max =   5.0031e-04 ( 496.7 sec  20/ 48 done)
  ITERATION  13:   ||err||_max =   3.3408e-04 ( 315.9 sec  28/ 48 done)
  ITERATION  14:   ||err||_max =   2.1620e-04 ( 187.4 sec  37/ 48 done)
  ITERATION  15:   ||err||_max =   1.1177e-04 (  89.1 sec  45/ 48 done)
  ITERATION  16:   ||err||_max =   6.1672e-05 (  27.3 sec  48/ 48 done)

CP-SCF equations solved in 9990.6 sec
Response densities calculated in   0.4 sec

Maximum memory used throughout the entire SCFRESP-calculation: 208.4 MB


           ************************************************************
           *        Program running with 8 parallel MPI-processes     *
           *              working on a common directory               *
           ************************************************************

------------------------------------------------------------------------------
                              ORCA PROPERTY CALCULATIONS
------------------------------------------------------------------------------

GBWName                                 ... t1_freq_2_wat.gbw
Number of atoms                         ...     16
Number of basis functions               ...    304
Max core memory                         ...   8000 MB

Electric properties:
Dipole moment                           ... YES
Quadrupole moment                       ...  NO
Static polarizability (Dipole/Dipole)   ...  NO
Static polarizability (Dipole/Quad.)    ...  NO
Static polarizability (Quad./Quad.)     ...  NO
Static polarizability (Velocity)        ...  NO
Static hyperpolarizability              ...  NO

Atomic electric properties:
Dipole moment                           ...  NO
Quadrupole moment                       ...  NO
Static polarizability                   ...  NO

Choice of electric origin               ... Center of mass
Position of electric origin             ...     0.223707    -0.362709     0.101951

General magnetic properties:
Magnetizability                         ...  NO

EPR properties:
g-Tensor (aka g-matrix)                 ...  NO
Zero-Field splitting spin-orbit         ...  NO
Zero-field splitting spin-spin          ...  NO
Hyperfine couplings                     ...  NO (   0 nuclei)
Quadrupole couplings                    ...  NO (   0 nuclei)
Contact density                         ...  NO (   0 nuclei)

NMR properties:
Chemical shifts                         ...  NO (   0 nuclei)
Spin-rotation constants                 ...  NO (   0 nuclei)
Spin-spin couplings                     ...  NO (   0 nuclei,    0 pairs)

Choice of magnetic origin               ... GIAO
Position of magnetic origin             ...     0.000000     0.000000     0.000000

Properties with geometric perturbations:
SCF Hessian                             ... YES
IR spectrum                             ... YES
VCD spectrum                            ...  NO
X-ray spectroscopy properties:
SCF XES/XAS/RIXS spectra                ...  NO

SCF SOC stabilization energy            ...  NO
Diagonal Born-Oppenheimer correction    ...  NO

-------------
DIPOLE MOMENT
-------------

Method             : SCF
Type of density    : Electron Density
Multiplicity       :   3
Irrep              :   0
Energy             :  -495.0731062762748138 Eh
Basis              : AO
                                X                 Y                 Z
[...]
     37      -0.004779   0.046061   0.022229   0.743082  -0.000596  -0.000017
     38       0.000160  -0.000965   0.001309   0.014833   0.000002  -0.000084
     39      -0.000399  -0.001147  -0.051563   0.001598  -0.000082   0.000077
     40      -0.000972  -0.000172  -0.007169  -0.000062   0.000030   0.000051
     41      -0.000781   0.000701  -0.044979   0.001472   0.000009   0.000052
     42       0.008683  -0.004574   0.596965  -0.018444   0.000020  -0.000373
     43       0.004282   0.001534   0.255191  -0.008160   0.000063  -0.000196
     44       0.000937   0.000359   0.021263  -0.000959  -0.000069  -0.000206
     45      -0.005769   0.018566   0.235911  -0.004905   0.001852  -0.000803
     46       0.011810  -0.008388  -0.145139   0.003284  -0.000781  -0.000501
     47       0.011494  -0.013560   0.703853  -0.022755  -0.000105  -0.001009
                 42         43         44         45         46         47    
      0       0.003263   0.002390   0.002748  -0.000325   0.000362  -0.000297
      1      -0.000409   0.000292   0.002435   0.000186   0.000631  -0.000531
      2       0.000018   0.000029   0.000024  -0.000000   0.000007   0.000003
      3      -0.001555   0.000481   0.003038  -0.001291  -0.000007   0.000030
      4      -0.001646   0.003723   0.007793  -0.006222   0.000004  -0.000570
      5      -0.000011   0.000198   0.000051  -0.000067  -0.000005   0.000010
      6       0.051533  -0.000932  -0.000952   0.000137  -0.000137   0.000055
      7       0.076463  -0.000440   0.000729  -0.000161   0.000004   0.000045
      8       0.001144  -0.000200   0.000050   0.000000   0.000007  -0.000024
      9      -0.157188  -0.000148   0.000449   0.000066  -0.000097   0.000187
     10      -0.030663   0.001380  -0.000447   0.000198   0.000057  -0.000014
     11       0.230167   0.000058   0.000440  -0.000232   0.000085   0.000089
     12      -0.154492   0.000025   0.000462   0.000065  -0.000094   0.000185
     13      -0.025643   0.001676  -0.000581   0.000202   0.000044  -0.000079
     14      -0.232957   0.000793  -0.000563   0.000231  -0.000093   0.000061
     15      -0.323008   0.003133   0.002096  -0.001080   0.000404  -0.000199
     16      -0.854123  -0.002804  -0.010086   0.002144  -0.000832   0.000744
     17      -0.011008   0.000055  -0.000060   0.000019  -0.000000   0.000061
     18      -0.000274  -0.001389  -0.002417   0.000700  -0.000205   0.000148
     19       0.000310  -0.000142  -0.001838   0.000327  -0.000334   0.000323
     20      -0.000022  -0.000009   0.000015  -0.000003  -0.000001  -0.000003
     21       0.000455  -0.000701  -0.001914   0.000786   0.000015   0.000108
     22       0.000792  -0.001351  -0.002336   0.002440  -0.000085   0.000228
     23       0.000009  -0.000028  -0.000017   0.000025   0.000003  -0.000011
     24      -0.000198   0.002719   0.030778  -0.016560  -0.000504   0.000267
     25      -0.000094   0.003178   0.043582  -0.022198  -0.000502   0.000590
     26      -0.000004   0.000053   0.000643  -0.000333  -0.000008   0.000005
     27       0.001022  -0.035680  -0.479980   0.252945   0.009342  -0.006079
     28       0.008401  -0.067618  -0.741983   0.378792   0.009041  -0.006189
     29       0.000085  -0.001418  -0.010861   0.005561   0.000131  -0.000024
     30       0.000131  -0.001516  -0.026736  -0.051733  -0.009124  -0.000436
     31      -0.000125   0.000625   0.003967   0.005948   0.061676   0.001331
     32      -0.000002   0.000020  -0.000306  -0.000619   0.000949  -0.000000
     33       0.000267  -0.002144  -0.017934  -0.035568   0.050868   0.001321
     34       0.000351  -0.001760   0.036090   0.096425  -0.991854  -0.021072
     35       0.000008  -0.000082   0.000356   0.001175  -0.016624  -0.000345
     36      -0.001996   0.026076   0.443286   0.861415   0.093224   0.005743
     37       0.001054  -0.008540  -0.101936  -0.190188   0.011481   0.000121
     38      -0.000010   0.000085   0.004418   0.008716   0.001514   0.000071
     39      -0.000102  -0.052271   0.004103  -0.000540   0.000141   0.001350
     40       0.000040  -0.025681   0.002029  -0.000275  -0.000321   0.020660
     41      -0.000045   0.007853   0.000008   0.000044   0.001257  -0.059239
     42       0.000024  -0.025193   0.001151  -0.000478  -0.001274   0.059140
     43      -0.000250  -0.042967   0.006179  -0.000795   0.006487  -0.295269
     44       0.000578   0.091902  -0.016421   0.001704  -0.020711   0.947211
     45       0.000781   0.854579  -0.067670   0.009182  -0.001351  -0.080578
     46      -0.000393   0.448982  -0.038452   0.005438  -0.001237  -0.032813
     47       0.000437  -0.216917   0.015760  -0.002329   0.000675  -0.006622


-----------
IR SPECTRUM
-----------

 Mode   freq       eps      Int      T**2         TX        TY        TZ
       cm**-1   L/(mol*cm) km/mol    a.u.
----------------------------------------------------------------------------
  9:     36.61   0.000173    0.87  0.001471  (-0.035081  0.012541  0.009122)
 10:     84.37   0.000244    1.23  0.000902  ( 0.016443 -0.019074  0.016376)
 11:     90.29   0.008592   43.42  0.029696  (-0.002075  0.003253 -0.172281)
 12:    109.16   0.002522   12.74  0.007208  ( 0.007106 -0.006398 -0.084362)
 13:    162.23   0.000963    4.87  0.001852  ( 0.021465  0.031856  0.019399)
 14:    169.30   0.006584   33.27  0.012136  ( 0.069869  0.083873 -0.014832)
 15:    178.16   0.000353    1.78  0.000618  (-0.022203 -0.011126  0.001276)
 16:    304.81   0.002432   12.29  0.002490  (-0.046018  0.016786  0.009527)
 17:    352.02   0.048742  246.32  0.043209  ( 0.108829  0.172809  0.038760)
 18:    372.26   0.008709   44.01  0.007301  (-0.041213 -0.070388  0.025455)
 19:    388.77   0.027920  141.10  0.022412  ( 0.059143  0.130689 -0.042826)
 20:    402.88   0.011189   56.55  0.008667  ( 0.091387 -0.011802 -0.013276)
 21:    543.56   0.000188    0.95  0.000108  (-0.006794 -0.007855 -0.000380)
 22:    572.60   0.002094   10.58  0.001141  (-0.018659 -0.028067 -0.002318)
 23:    592.48   0.016719   84.49  0.008806  ( 0.004776  0.009806 -0.093205)
 24:    636.35   0.013295   67.19  0.006520  ( 0.006223  0.011862 -0.079628)
 25:    652.22   0.049798  251.66  0.023827  ( 0.052853  0.140098  0.037493)
 26:    687.06   0.008875   44.85  0.004031  (-0.001130  0.005805 -0.063214)
 27:    774.61   0.026119  132.00  0.010522  ( 0.097498  0.031504 -0.004913)
 28:    981.22   0.025436  128.54  0.008089  (-0.070655 -0.055646  0.000891)
 29:   1006.30   0.000637    3.22  0.000198  (-0.007955 -0.005539 -0.010181)
 30:   1051.21   0.309799  1565.60  0.091968  (-0.217536 -0.211180  0.006975)
 31:   1141.81   0.254852  1287.92  0.069652  ( 0.235888  0.118212 -0.005898)
 32:   1266.70   0.012622   63.79  0.003110  (-0.054714 -0.010622 -0.001767)
 33:   1377.30   0.060083  303.64  0.013613  ( 0.027547 -0.113369 -0.001400)
 34:   1379.75   0.004042   20.43  0.000914  ( 0.029963 -0.003993 -0.000687)
 35:   1427.99   0.002017   10.19  0.000441  ( 0.001662  0.000705  0.020917)
 36:   1451.27   0.012714   64.25  0.002734  (-0.044326 -0.027675  0.001798)
 37:   1553.69   0.015461   78.13  0.003105  ( 0.030970  0.046310 -0.001316)
 38:   1654.50   0.023876  120.66  0.004503  ( 0.058078  0.026170  0.021107)
 39:   1697.98   0.050092  253.14  0.009206  ( 0.083480  0.047299 -0.000051)
 40:   3031.23   0.001426    7.21  0.000147  ( 0.011825  0.002593 -0.000488)
 41:   3099.11   0.000428    2.16  0.000043  ( 0.000362  0.000088 -0.006551)
 42:   3158.78   0.002755   13.92  0.000272  (-0.010275 -0.012904  0.000197)
 43:   3452.38   0.121266  612.83  0.010961  ( 0.083524  0.062141 -0.011114)
 44:   3577.30   0.155330  784.98  0.013550  ( 0.105530  0.049117 -0.000988)
 45:   3602.39   0.025908  130.93  0.002244  ( 0.047261  0.003196  0.000745)
 46:   3934.29   0.010091   51.00  0.000800  ( 0.028011 -0.003889 -0.000843)
 47:   3963.69   0.024887  125.77  0.001959  (-0.026673 -0.028509  0.020859)

* The epsilon (eps) is given for a Dirac delta lineshape.
** The dipole moment derivative (T) already includes vibrational overlap.

The first frequency considered to be a vibration is 9
The total number of vibrations considered is 39


--------------------------
THERMOCHEMISTRY AT 298.15K
--------------------------

Temperature         ...   298.15 K
Pressure            ...     1.00 atm
Total Mass          ...   124.09 AMU
Quasi RRHO          ...     True
Cut-Off Frequency   ...     1.00 cm^-1

Throughout the following assumptions are being made:
  (1) The electronic state is orbitally nondegenerate
      but the spin degeneracy is treated
  (2) There are no thermally accessible electronically excited states
  (3) Hindered rotations indicated by low frequency modes are not
      treated as such but are treated as vibrations and this may
      cause some error
  (4) All equations used are the standard statistical mechanics
      equations for an ideal gas
  (5) All vibrations are strictly harmonic

freq.      36.61  E(vib)   ...       0.54 
freq.      84.37  E(vib)   ...       0.48 
freq.      90.29  E(vib)   ...       0.47 
freq.     109.16  E(vib)   ...       0.45 
freq.     162.23  E(vib)   ...       0.39 
freq.     169.30  E(vib)   ...       0.38 
freq.     178.16  E(vib)   ...       0.37 
freq.     304.81  E(vib)   ...       0.26 
freq.     352.02  E(vib)   ...       0.23 
freq.     372.26  E(vib)   ...       0.21 
freq.     388.77  E(vib)   ...       0.20 
freq.     402.88  E(vib)   ...       0.19 
freq.     543.56  E(vib)   ...       0.12 
freq.     572.60  E(vib)   ...       0.11 
freq.     592.48  E(vib)   ...       0.10 
freq.     636.35  E(vib)   ...       0.09 
freq.     652.22  E(vib)   ...       0.08 
freq.     687.06  E(vib)   ...       0.07 
freq.     774.61  E(vib)   ...       0.05 
freq.     981.22  E(vib)   ...       0.02 
freq.    1006.30  E(vib)   ...       0.02 
freq.    1051.21  E(vib)   ...       0.02 
freq.    1141.81  E(vib)   ...       0.01 
freq.    1266.70  E(vib)   ...       0.01 
freq.    1377.30  E(vib)   ...       0.01 
freq.    1379.75  E(vib)   ...       0.01 
freq.    1427.99  E(vib)   ...       0.00 
freq.    1451.27  E(vib)   ...       0.00 
freq.    1553.69  E(vib)   ...       0.00 
freq.    1654.50  E(vib)   ...       0.00 
freq.    1697.98  E(vib)   ...       0.00 
freq.    3031.23  E(vib)   ...       0.00 
freq.    3099.11  E(vib)   ...       0.00 
freq.    3158.78  E(vib)   ...       0.00 
freq.    3452.38  E(vib)   ...       0.00 
freq.    3577.30  E(vib)   ...       0.00 
freq.    3602.39  E(vib)   ...       0.00 
freq.    3934.29  E(vib)   ...       0.00 
freq.    3963.69  E(vib)   ...       0.00 

------------
INNER ENERGY
------------

The inner energy is: U= E(el) + E(ZPE) + E(vib) + E(rot) + E(trans)
    E(el)   - is the total energy from the electronic structure calculation
              = E(kin-el) + E(nuc-el) + E(el-el) + E(nuc-nuc)
    E(ZPE)  - the the zero temperature vibrational energy from the frequency calculation
    E(vib)  - the the finite temperature correction to E(ZPE) due to population
              of excited vibrational states
    E(rot)  - is the rotational thermal energy
    E(trans)- is the translational thermal energy

Summary of contributions to the inner energy U:
Electronic energy                ...   -495.07310628 Eh
Zero point energy                ...      0.11600118 Eh      72.79 kcal/mol
Thermal vibrational correction   ...      0.00785466 Eh       4.93 kcal/mol
Thermal rotational correction    ...      0.00141627 Eh       0.89 kcal/mol
Thermal translational correction ...      0.00141627 Eh       0.89 kcal/mol
-----------------------------------------------------------------------
Total thermal energy                   -494.94641790 Eh


Summary of corrections to the electronic energy:
(perhaps to be used in another calculation)
Total thermal correction                  0.01068720 Eh       6.71 kcal/mol
Non-thermal (ZPE) correction              0.11600118 Eh      72.79 kcal/mol
-----------------------------------------------------------------------
Total correction                          0.12668837 Eh      79.50 kcal/mol


--------
ENTHALPY
--------

The enthalpy is H = U + kB*T
                kB is Boltzmann's constant
Total thermal energy              ...   -494.94641790 Eh 
Thermal Enthalpy correction       ...      0.00094421 Eh       0.59 kcal/mol
-----------------------------------------------------------------------
Total Enthalpy                    ...   -494.94547369 Eh


Note: Only C1 symmetry has been detected, increase convergence thresholds 
      if your molecule has a higher symmetry. Symmetry factor of 1.0 is   
      used for the rotational entropy correction. 
 

Note: Rotational entropy computed according to Herzberg 
Infrared and Raman Spectra, Chapter V,1, Van Nostrand Reinhold, 1945 
Point Group:  C1, Symmetry Number:   1  
Rotational constants in cm-1:     0.147036     0.023065     0.020099 

Vibrational entropy computed according to the QRRHO of S. Grimme
Chem.Eur.J. 2012 18 9955 using a reference frequency of 100.0 cm-1


-------
ENTROPY
-------

The entropy contributions are T*S = T*(S(el)+S(vib)+S(rot)+S(trans))
     S(el)   - electronic entropy
     S(vib)  - vibrational entropy
     S(rot)  - rotational entropy
     S(trans)- translational entropy
The entropies will be listed as multiplied by the temperature to get
units of energy

Electronic entropy                ...      0.00103729 Eh      0.65 kcal/mol
Vibrational entropy               ...      0.01406779 Eh      8.83 kcal/mol
Rotational entropy                ...      0.01403986 Eh      8.81 kcal/mol
Translational entropy             ...      0.01917695 Eh     12.03 kcal/mol
-----------------------------------------------------------------------
Final entropy term                ...      0.04832188 Eh     30.32 kcal/mol

In case the symmetry of your molecule has not been determined correctly
or in case you have a reason to use a different symmetry number we print 
out the resulting rotational entropy values for sn=1,12:

 non-linear molecules -----------------------------------
|  sn= 1 | S(rot)=       0.01403986 Eh      8.81 kcal/mol|
|  sn= 2 | S(rot)=       0.01338540 Eh      8.40 kcal/mol|
|  sn= 3 | S(rot)=       0.01300257 Eh      8.16 kcal/mol|
|  sn= 4 | S(rot)=       0.01273095 Eh      7.99 kcal/mol|
|  sn= 5 | S(rot)=       0.01252026 Eh      7.86 kcal/mol|
|  sn= 6 | S(rot)=       0.01234811 Eh      7.75 kcal/mol|
|  sn= 7 | S(rot)=       0.01220257 Eh      7.66 kcal/mol|
|  sn= 8 | S(rot)=       0.01207649 Eh      7.58 kcal/mol|
|  sn= 9 | S(rot)=       0.01196528 Eh      7.51 kcal/mol|
|  sn=10 | S(rot)=       0.01186580 Eh      7.45 kcal/mol|
|  sn=11 | S(rot)=       0.01177581 Eh      7.39 kcal/mol|
|  sn=12 | S(rot)=       0.01169366 Eh      7.34 kcal/mol|
 linear molecules ---------------------------------------
|  Dinfh | S(rot)=       0.00901481 Eh      5.66 kcal/mol|
|  Cinfv | S(rot)=       0.00966927 Eh      6.07 kcal/mol|
 --------------------------------------------------------


-------------------
GIBBS FREE ENERGY
-------------------

The Gibbs free energy is G = H - T*S

Total enthalpy                    ...   -494.94547369 Eh 
Total entropy correction          ...     -0.04832188 Eh    -30.32 kcal/mol
-----------------------------------------------------------------------
Final Gibbs free energy         ...   -494.99379557 Eh

For completeness - the Gibbs free energy minus the electronic energy
G-E(el)                           ...      0.07931070 Eh     49.77 kcal/mol


Maximum memory used throughout the entire PROP-calculation: 45.7 MB

--------------------------------
SUGGESTED CITATIONS FOR THIS RUN
--------------------------------

Below you find a list of papers that are relevant to this ORCA run
We neither can nor want to force you to cite these papers, but we appreciate if you do
You receive ORCA, which is the product of decades of hard work by many enthusiastic individuals, for free
The only thing we kindly ask in return is that you cite our papers,
We deeply appreciate it, if you show your appreciation for ORCA by not just citing the generic ORCA reference.

Please note that relegating all ORCA citations to the supporting information does *not* help us.
SI sections are not indexed - citations you put there will not count into any citation statistics
But we need these citations in order to attract the funding resources that allow us to do what we are doing

Therefore, if you are a happy ORCA user, please consider citing a few of the papers listed below in the main body of your paper

In addition to the list printed below, the program has created the file t1_freq_2_wat.bibtex that contains the list in bibtex format
You can import this file easily into all common literature databanks and citation aid programs


List of essential papers. We consider these as the minimum necessary citations

  1. Neese, F.
     Software update: the ORCA program system, version 6.0
     WIRES Comput. Molec. Sci. 2025 15(1), e70019
     doi.org/10.1002/wcms.7019

List of papers to cite with high priority. The work reported in these papers was absolutely
necessary for this run to complete.
Our perspective: the developers of density functionals and basis sets usually get cited in chemistry papers
Good! But without the algorithms to do something with them, the functionals or basis sets would not do anything.
Hence, in our opinion, the algorithm design and method developments papers are equally worthy of getting cited

  1. Bykov, D.; Petrenko, T.; Izsak, R.; Kossmann, S.; Becker, U.; Valeev, E.; Neese, F.
     Efficient implementation of the analytic second derivatives of Hartree-Fock and hybrid DFT energies: a detailed analysis of different approximations
     Molec. Phys. 2015 113 , 1961-1977
     doi.org/10.1080/00268976.2015.1025114
  2. Lehtola, S.; Steigemann, C.; Oliveira, M.; Marques, M.
     Recent developments in Libxc - A comprehensive library of functionals for density functional theory
     Software X 2018 7 , 
     doi.org/10.1016/j.softx.2017.11.002
  3. Neese, F.
     The SHARK Integral Generation and Digestion System
     J. Comp. Chem. 2022 44(3), 381
     doi.org/10.1002/jcc.26942

List of suggested additional citations. These are papers that are important in the 'surrounding' of 
of this run, or papers that preceded the highly important papers. If you like your results we are grateful for a citation.

  1. Neese, F.
     The ORCA program system
     WIRES Comput. Molec. Sci. 2012 2(1), 73-78
     doi.org/10.1002/wcms.81
  2. Neese, F.
     Software update: the ORCA program system, version 4.0
     WIRES Comput. Molec. Sci. 2018 8(1), 1-6
     doi.org/10.1002/wcms.1327
  3. Neese, F.; Wennmohs, F.; Becker, U.; Riplinger, C.
     The ORCA quantum chemistry program package
     J. Chem. Phys. 2020 152(22), 224108
     doi.org/10.1063/5.0004608
  4. Neese, F.
     Software update: The ORCA program system—Version 5.0
     WIRES Comput. Molec. Sci. 2022 12(1), e1606
     doi.org/10.1002/wcms.1606

List of optional additional citations

  1. Neese, F.
     Approximate second-order SCF convergence for spin unrestricted wavefunctions
     Chem. Phys. Lett. 2000 325(1-3), 93-98
     doi.org/10.1016/s0009-2614(00)00662-x

Timings for individual modules:

Sum of individual times          ...    11117.471 sec (= 185.291 min)
Startup calculation              ...       11.531 sec (=   0.192 min)   0.1 %
SCF iterations                   ...      189.623 sec (=   3.160 min)   1.7 %
Property integrals               ...      592.084 sec (=   9.868 min)   5.3 %
SCF Response                     ...     9992.008 sec (= 166.533 min)  89.9 %
Property calculations            ...      297.456 sec (=   4.958 min)   2.7 %
SCF Gradient evaluation          ...       34.769 sec (=   0.579 min)   0.3 %
                             ****ORCA TERMINATED NORMALLY****
TOTAL RUN TIME: 0 days 3 hours 5 minutes 19 seconds 17 msec
